<compound>
<LibraryIndex name="Index" value="108" />
<CompoundID name="Name" value="1,1-dimethylcyclopentane" />
<StructureFormula name="Structure" value="-CH2C(CH3)2CH2CH2CH2-" />
<Family name="Family" value="6" />
<CriticalTemperature name="Critical temperature" units="K" value="547" />
<CriticalPressure name="Critical pressure" units="Pa" value="3445000" />
<CriticalVolume name="Critical volume" units="m3/kmol" value="0.36" />
<CriticalCompressibility name="Critical compressibility factor" units="_" value="0.273" />
<NormalBoilingPointTemperature name="Normal boiling point" units="K" value="361" />
<NormalMeltingPointTemperature name="Melting point" units="K" value="203.36" />
<TriplePointTemperature name="Triple point temperature" units="K" value="203.68" />
<TriplePointPressure name="Triple point pressure" units="Pa" value="9.04909" />
<MolecularWeight name="Molecular weight" units="kg/kmol" value="98.18607" />
<LiquidVolumeAtNormalBoilingPoint name="Liquid molar volume at normal boiling point" units="m3/kmol" value="0.130925" />
<AcentricityFactor name="Acentric factor" units="_" value="0.272354" />
<RadiusOfGyration name="Radius of gyration" units="m" value="3.43E-10" />
<SolubilityParameter name="Solubility parameter" units="J0.5/m1.5" value="15460" />
<DipoleMoment name="Dipole moment" units="Coulomb.m" value="0" />
<VanDerWaalsVolume name="Van der Waals volume" units="m3/kmol" value="0.07045" />
<VanDerWaalsArea name="Van der Waals area" units="m2/kmol" value="9.07E+08" />
<HeatOfFormation name="IG heat of formation" units="J/kmol" value="-1.3828E+08" />
<GibbsEnergyOfFormation name="IG Gibbs energy of formation" units="J/kmol" value="3.9037E+07" />
<AbsEntropy name="IG absolute entropy" units="J/kmol/K" value="359280" />
<HeatOfFusionAtMeltingPoint name="Heat of fusion at melting point" units="J/kmol" value="1080000" />
<MatthiasCopemanC1 name="Mathias-Copeman C1" units="_" value="0.99405" />
<HeatOfCombustion name="Standard net heat of combustion LHV" units="J/kmol" value="-4.2752E+09" />
<SolidDensity name="Solid density" units="kmol/m3">
  <eqno value="2" />
  <A value="10.747" />
  <B value="-0.0058701" />
  <C value="0" />
  <D value="0" />
  <E value="0" />
  <Tmin units="K" value="81.34" />
  <Tmax units="K" value="203.36" />
  </SolidDensity>
<LiquidDensity name="Liquid density" units="kmol/m3">
  <eqno value="105" />
  <A value="0.77031" />
  <B value="0.27731" />
  <C value="547" />
  <D value="0.30161" />
  <Tmin units="K" value="203.36" />
  <Tmax units="K" value="547" />
  </LiquidDensity>
<VaporPressure name="Vapour pressure" units="Pa">
  <eqno value="101" />
  <A value="80.69439" />
  <B value="-6444.768" />
  <C value="-8.840923" />
  <D value="5.777915E-06" />
  <E value="2" />
  <Tmin units="K" value="203.36" />
  <Tmax units="K" value="547" />
  </VaporPressure>
<HeatOfVaporization name="Heat of vaporization" units="J/kmol">
  <eqno value="106" />
  <A value="6.4753E+07" />
  <B value="1.835" />
  <C value="-2.4221" />
  <D value="1.0097" />
  <E value="0.083052" />
  <Tmin units="K" value="203.36" />
  <Tmax units="K" value="547" />
  </HeatOfVaporization>
<SolidHeatCapacityCp name="Solid heat capacity" units="J/kmol/K">
  <eqno value="1" />
  <A value="182070" />
  <Tmin units="K" value="0" />
  <Tmax units="K" value="547" />
  </SolidHeatCapacityCp>
<LiquidHeatCapacityCp name="Liquid heat capacity" units="J/kmol/K">
  <eqno value="16" />
  <A value="63403" />
  <B value="-76.912" />
  <C value="11.112" />
  <D value="0.0033685" />
  <E value="-0.0000013786" />
  <Tmin units="K" value="213.87" />
  <Tmax units="K" value="361" />
  </LiquidHeatCapacityCp>
<IdealGasHeatCapacityCp name="Ideal gas heat capacity" units="J/kmol/K">
  <eqno value="16" />
  <A value="84040" />
  <B value="-831.97" />
  <C value="13.78" />
  <D value="-0.00060484" />
  <E value="0.0000001825" />
  <Tmin units="K" value="200" />
  <Tmax units="K" value="1500" />
  </IdealGasHeatCapacityCp>
<SecondVirialCoefficient name="Second virial coefficient" units="m3/kmol">
  <eqno value="104" />
  <A value="0.22139" />
  <B value="-197.51" />
  <C value="-37.472" />
  <D value="-7234" />
  <E value="10587" />
  <Tmin units="K" value="273.5" />
  <Tmax units="K" value="1914.5" />
  </SecondVirialCoefficient>
<LiquidViscosity name="Liquid viscosity" units="Pa.s">
  <eqno value="101" />
  <A value="-7.8132" />
  <B value="901.76" />
  <C value="-0.51373" />
  <D value="0.0000011607" />
  <E value="2" />
  <Tmin units="K" value="203.36" />
  <Tmax units="K" value="400" />
  </LiquidViscosity>
<VaporViscosity name="Vapour viscosity" units="Pa.s">
  <eqno value="102" />
  <A value="0.0000055348" />
  <B value="0.28035" />
  <C value="888.45" />
  <D value="60.9" />
  <Tmin units="K" value="203.36" />
  <Tmax units="K" value="1000" />
  </VaporViscosity>
<LiquidThermalConductivity name="Liquid thermal conductivity" units="W/m/K">
  <eqno value="16" />
  <A value="-0.012548" />
  <B value="-26.729" />
  <C value="-1.3811" />
  <D value="-0.0017046" />
  <E value="-8.8213E-07" />
  <Tmin units="K" value="203.36" />
  <Tmax units="K" value="361" />
  </LiquidThermalConductivity>
<VaporThermalConductivity name="Vapour thermal conductivity" units="W/m/K">
  <eqno value="102" />
  <A value="0.0025566" />
  <B value="0.60638" />
  <C value="165.73" />
  <D value="477660" />
  <Tmin units="K" value="203.68" />
  <Tmax units="K" value="1000" />
  </VaporThermalConductivity>
<SurfaceTension name="Surface tension" units="N/m">
  <eqno value="16" />
  <A value="-0.0074471" />
  <B value="112.42" />
  <C value="-4.128" />
  <D value="0.0036419" />
  <E value="-0.0000099747" />
  <Tmin units="K" value="203.36" />
  <Tmax units="K" value="547" />
  </SurfaceTension>
<RPPHeatCapacityCp name="Ideal gas heat capacity (RPP)" units="J/kmol/K">
  <eqno value="4" />
  <A value="-40808" />
  <B value="693.04" />
  <C value="-0.36013" />
  <D value="0.000068107" />
  <Tmin units="K" value="200" />
  <Tmax units="K" value="1500" />
  </RPPHeatCapacityCp>
<AntoineVaporPressure name="Antoine" units="Pa">
  <eqno value="10" />
  <A value="20.924" />
  <B value="3024.7" />
  <C value="-39.21" />
  <Tmin units="K" value="329.96" />
  <Tmax units="K" value="474.65" />
  </AntoineVaporPressure>
<LiquidViscosityRPS name="Liquid viscosity (RPS)" units="Pa.s">
  <eqno value="12" />
  <A value="-3.5541" />
  <B value="-0.013334" />
  <Tmin units="K" value="203.36" />
  <Tmax units="K" value="361" />
  </LiquidViscosityRPS>
<COSTALDVolume name="COSTLD characteristic volume (V*)" units="m3/kmol" value="0.379444" />
<DiameterLJ name="Lennard Jones diameter" units="m" value="6.304016E-10" />
<EnergyLJ name="Lennard Jones energy" units="K" value="333.4925" />
<RacketParameter name="Rackett parameter" units="_" value="0.273" />
<FullerVolume name="Fuller et al. diffusion volume" units="_" value="143.64" />
<MatthiasCopemanC2 name="Mathias-Copeman C2" units="_" value="-0.87279" />
<Parachor name="Parachor" units="kg0.25.m3/s0.5/kmol" value="0.0500314" />
<SpecificGravity name="Specific gravity" units="_" value="0.759292" />
<Charge name="Charge" units="_" value="0" />
<CostaldAcentricFactor name="SRK acentric factor" units="_" value="0.272354" />
<WilsonVolume name="Wilson volume" units="m3/kmol" value="0.130925" />
<UniquacR name="UNIQUAC r" units="_" value="4.7193" />
<UniquacQ name="UNIQUAC q" units="_" value="3.856" />
<ApiSrkS2 name="API-SRK s2" units="_" value="-0.013551" />
<MatthiasCopemanC3 name="Mathias-Copeman C3" units="_" value="1.5932" />
<ChaoSeaderAcentricFactor name="Chao-Seader acentric factor" units="_" value="0.272354" />
<ChaoSeaderSolubilityParameter name="Chao-Seader solubility parameter" units="J0.5/m1.5" value="15460" />
<ChaoSeaderLiquidVolume name="Chao-Seader liquid volume" units="m3/kmol" value="0.130925" />
<UnifacVLE name="UNIFAC">
  <group id="1" value="2" />
  <group id="2" value="4" />
  <group id="4" value="1" />
  </UnifacVLE>
<UnifacLLE name="UNIFAC-LLE">
  <group id="1" value="2" />
  <group id="2" value="4" />
  <group id="4" value="1" />
  </UnifacLLE>
<Asog name="ASOG">
  <group id="1" value="2" />
  <group id="2" value="4" />
  <group id="4" value="1" />
  </Asog>
<GCmethod name="PPR78">
  <group id="1" value="2" />
  <group id="4" value="1" />
  <group id="10" value="4" />
  </GCmethod>
<Umr name="UMR">
  <group id="1" value="2" />
  <group id="2" value="4" />
  <group id="4" value="1" />
  </Umr>
<ModifiedUnifac name="Modified UNIFAC">
  <group id="1" value="2" />
  <group id="78" value="4" />
  <group id="80" value="1" />
  </ModifiedUnifac>
<CAS name="CAS number" value="1638-26-2" />
<Smiles name="SMILES" value="C1(C)(C)CCCC1" />
</compound>

