<compound>
<LibraryIndex name="Index" value="515" />
<CompoundID name="Name" value="1,2,4-trimethylbenzene" />
<StructureFormula name="Structure" value="(C6H3)(CH3)3" />
<Family name="Family" value="10" />
<CriticalTemperature name="Critical temperature" units="K" value="649.1" />
<CriticalPressure name="Critical pressure" units="Pa" value="3232000" />
<CriticalVolume name="Critical volume" units="m3/kmol" value="0.435" />
<CriticalCompressibility name="Critical compressibility factor" units="_" value="0.256" />
<NormalBoilingPointTemperature name="Normal boiling point" units="K" value="442.49" />
<NormalMeltingPointTemperature name="Melting point" units="K" value="229.38" />
<TriplePointTemperature name="Triple point temperature" units="K" value="229.33" />
<TriplePointPressure name="Triple point pressure" units="Pa" value="0.69347" />
<MolecularWeight name="Molecular weight" units="kg/kmol" value="120.1916" />
<LiquidVolumeAtNormalBoilingPoint name="Liquid molar volume at normal boiling point" units="m3/kmol" value="0.136" />
<AcentricityFactor name="Acentric factor" units="_" value="0.377" />
<RadiusOfGyration name="Radius of gyration" units="m" value="4.199E-10" />
<SolubilityParameter name="Solubility parameter" units="J0.5/m1.5" value="18090" />
<DipoleMoment name="Dipole moment" units="Coulomb.m" value="1.0E-30" />
<VanDerWaalsVolume name="Van der Waals volume" units="m3/kmol" value="0.08181" />
<VanDerWaalsArea name="Van der Waals area" units="m2/kmol" value="1.026E+09" />
<HeatOfFormation name="IG heat of formation" units="J/kmol" value="-1.392E+07" />
<GibbsEnergyOfFormation name="IG Gibbs energy of formation" units="J/kmol" value="1.17E+08" />
<AbsEntropy name="IG absolute entropy" units="J/kmol/K" value="395870" />
<HeatOfFusionAtMeltingPoint name="Heat of fusion at melting point" units="J/kmol" value="1.319E+07" />
<MatthiasCopemanC1 name="Mathias-Copeman C1" units="_" value="1.1182" />
<HeatOfCombustion name="Standard net heat of combustion LHV" units="J/kmol" value="-4.93067E+09" />
<SolidDensity name="Solid density" units="kmol/m3">
  <eqno value="2" />
  <A value="9.7544" />
  <B value="-0.0047176" />
  <C value="0" />
  <D value="0" />
  <E value="0" />
  <Tmin units="K" value="91.73" />
  <Tmax units="K" value="229.38" />
  </SolidDensity>
<LiquidDensity name="Liquid density" units="kmol/m3">
  <eqno value="105" />
  <A value="0.61782" />
  <B value="0.26243" />
  <C value="649.1" />
  <D value="0.28053" />
  <Tmin units="K" value="229.33" />
  <Tmax units="K" value="627.01" />
  </LiquidDensity>
<VaporPressure name="Vapour pressure" units="Pa">
  <eqno value="101" />
  <A value="60.23044" />
  <B value="-7113.208" />
  <C value="-5.408973" />
  <D value="1.637451E-06" />
  <E value="2" />
  <Tmin units="K" value="229.33" />
  <Tmax units="K" value="649.17" />
  </VaporPressure>
<HeatOfVaporization name="Heat of vaporization" units="J/kmol">
  <eqno value="106" />
  <A value="6.6212E+07" />
  <B value="0.612793" />
  <C value="0.157992" />
  <D value="-1.024462" />
  <E value="0.66352" />
  <Tmin units="K" value="229.33" />
  <Tmax units="K" value="627.01" />
  </HeatOfVaporization>
<SolidHeatCapacityCp name="Solid heat capacity" units="J/kmol/K">
  <eqno value="100" />
  <A value="-11144" />
  <B value="1377.6" />
  <C value="-5.4631" />
  <D value="0.013913" />
  <E value="-0.000011765" />
  <Tmin units="K" value="15" />
  <Tmax units="K" value="229.33" />
  </SolidHeatCapacityCp>
<LiquidHeatCapacityCp name="Liquid heat capacity" units="J/kmol/K">
  <eqno value="16" />
  <A value="159260" />
  <B value="100.48" />
  <C value="7.176" />
  <D value="0.015511" />
  <E value="-0.000013842" />
  <Tmin units="K" value="229.33" />
  <Tmax units="K" value="377.59" />
  </LiquidHeatCapacityCp>
<IdealGasHeatCapacityCp name="Ideal gas heat capacity" units="J/kmol/K">
  <eqno value="16" />
  <A value="86220" />
  <B value="-588.22" />
  <C value="13.049" />
  <D value="0.00013217" />
  <E value="-6.3042E-08" />
  <Tmin units="K" value="200" />
  <Tmax units="K" value="1500" />
  </IdealGasHeatCapacityCp>
<SecondVirialCoefficient name="Second virial coefficient" units="m3/kmol">
  <eqno value="104" />
  <A value="0.21967" />
  <B value="-308.5" />
  <C value="-93.453" />
  <D value="-7582" />
  <E value="-20640" />
  <Tmin units="K" value="324.5" />
  <Tmax units="K" value="1500" />
  </SecondVirialCoefficient>
<LiquidViscosity name="Liquid viscosity" units="Pa.s">
  <eqno value="101" />
  <A value="-22.655" />
  <B value="1676.9" />
  <C value="1.8204" />
  <D value="-0.0000040799" />
  <E value="2" />
  <Tmin units="K" value="229.33" />
  <Tmax units="K" value="550" />
  </LiquidViscosity>
<VaporViscosity name="Vapour viscosity" units="Pa.s">
  <eqno value="102" />
  <A value="9.0311E-07" />
  <B value="0.47728" />
  <C value="388.95" />
  <D value="-1321.5" />
  <Tmin units="K" value="229.33" />
  <Tmax units="K" value="1000" />
  </VaporViscosity>
<LiquidThermalConductivity name="Liquid thermal conductivity" units="W/m/K">
  <eqno value="16" />
  <A value="-0.097311" />
  <B value="-7.9329" />
  <C value="-1.1933" />
  <D value="-0.00075728" />
  <E value="-4.2291E-07" />
  <Tmin units="K" value="223.15" />
  <Tmax units="K" value="442.53" />
  </LiquidThermalConductivity>
<VaporThermalConductivity name="Vapour thermal conductivity" units="W/m/K">
  <eqno value="102" />
  <A value="0.000071734" />
  <B value="1.0715" />
  <C value="503.12" />
  <D value="48355" />
  <Tmin units="K" value="229.33" />
  <Tmax units="K" value="1000" />
  </VaporThermalConductivity>
<SurfaceTension name="Surface tension" units="N/m">
  <eqno value="16" />
  <A value="-0.011514" />
  <B value="38.782" />
  <C value="-3.0516" />
  <D value="0.00024183" />
  <E value="-0.0000039588" />
  <Tmin units="K" value="229.33" />
  <Tmax units="K" value="627.01" />
  </SurfaceTension>
<RPPHeatCapacityCp name="Ideal gas heat capacity (RPP)" units="J/kmol/K">
  <eqno value="100" />
  <A value="44225" />
  <B value="166.9" />
  <C value="1.0006" />
  <D value="-0.0014029" />
  <E value="5.5599E-07" />
  <Tmin units="K" value="50" />
  <Tmax units="K" value="1000" />
  </RPPHeatCapacityCp>
<RelativeStaticPermittivity name="Relative static permittivity" units="_">
  <eqno value="120" />
  <A value="-1.638772" />
  <B value="-1100" />
  <C value="-6.6" />
  <Tmin units="K" value="274.15" />
  <Tmax units="K" value="444.15" />
  </RelativeStaticPermittivity>
<AntoineVaporPressure name="Antoine" units="Pa">
  <eqno value="10" />
  <A value="21.398" />
  <B value="3864.8" />
  <C value="-51.014" />
  <Tmin units="K" value="392.48" />
  <Tmax units="K" value="583.15" />
  </AntoineVaporPressure>
<LiquidViscosityRPS name="Liquid viscosity (RPS)" units="Pa.s">
  <eqno value="12" />
  <A value="-3.0344" />
  <B value="-0.013005" />
  <Tmin units="K" value="229.33" />
  <Tmax units="K" value="442.53" />
  </LiquidViscosityRPS>
<COSTALDVolume name="COSTLD characteristic volume (V*)" units="m3/kmol" value="0.445517" />
<DiameterLJ name="Lennard Jones diameter" units="m" value="7.25304E-10" />
<EnergyLJ name="Lennard Jones energy" units="K" value="313.9704" />
<RacketParameter name="Rackett parameter" units="_" value="0.256" />
<FullerVolume name="Fuller et al. diffusion volume" units="_" value="152.52" />
<MatthiasCopemanC2 name="Mathias-Copeman C2" units="_" value="-0.5894" />
<Parachor name="Parachor" units="kg0.25.m3/s0.5/kmol" value="0.0565352" />
<SpecificGravity name="Specific gravity" units="_" value="0.880542" />
<Charge name="Charge" units="_" value="0" />
<CostaldAcentricFactor name="SRK acentric factor" units="_" value="0.377" />
<WilsonVolume name="Wilson volume" units="m3/kmol" value="0.136" />
<UniquacR name="UNIQUAC r" units="_" value="5.3928" />
<UniquacQ name="UNIQUAC q" units="_" value="4.104" />
<ApiSrkS2 name="API-SRK s2" units="_" value="-0.010675" />
<MatthiasCopemanC3 name="Mathias-Copeman C3" units="_" value="0.98594" />
<ChaoSeaderAcentricFactor name="Chao-Seader acentric factor" units="_" value="0.377" />
<ChaoSeaderSolubilityParameter name="Chao-Seader solubility parameter" units="J0.5/m1.5" value="18090" />
<ChaoSeaderLiquidVolume name="Chao-Seader liquid volume" units="m3/kmol" value="0.136" />
<UnifacVLE name="UNIFAC">
  <group id="10" value="3" />
  <group id="12" value="3" />
  </UnifacVLE>
<UnifacLLE name="UNIFAC-LLE">
  <group id="9" value="3" />
  <group id="11" value="3" />
  </UnifacLLE>
<Asog name="ASOG">
  <group id="1" value="3" />
  <group id="10" value="3" />
  <group id="11" value="3" />
  </Asog>
<GCmethod name="PPR78">
  <group id="7" value="3" />
  <group id="8" value="3" />
  <group id="1" value="3" />
  </GCmethod>
<Umr name="UMR">
  <group id="10" value="3" />
  <group id="12" value="3" />
  </Umr>
<ModifiedUnifac name="Modified UNIFAC">
  <group id="9" value="3" />
  <group id="11" value="3" />
  </ModifiedUnifac>
<CAS name="CAS number" value="95-63-6" />
<Smiles name="SMILES" value="c1(C)c(C)cc(C)cc1" />
</compound>

