<compound>
<LibraryIndex name="Index" value="531" />
<CompoundID name="Name" value="1,2,3,5-tetramethylbenzene" />
<StructureFormula name="Structure" value="(C6H2)(CH3)4" />
<Family name="Family" value="17" />
<CriticalTemperature name="Critical temperature" units="K" value="679" />
<CriticalPressure name="Critical pressure" units="Pa" value="3220000" />
<CriticalVolume name="Critical volume" units="m3/kmol" value="0.436" />
<CriticalCompressibility name="Critical compressibility factor" units="_" value="0.254" />
<NormalBoilingPointTemperature name="Normal boiling point" units="K" value="471.15" />
<NormalMeltingPointTemperature name="Melting point" units="K" value="249.46" />
<TriplePointTemperature name="Triple point temperature" units="K" value="249.46" />
<TriplePointPressure name="Triple point pressure" units="Pa" value="0.886139" />
<MolecularWeight name="Molecular weight" units="kg/kmol" value="134.2182" />
<LiquidVolumeAtNormalBoilingPoint name="Liquid molar volume at normal boiling point" units="m3/kmol" value="0.151385" />
<AcentricityFactor name="Acentric factor" units="_" value="0.459061" />
<RadiusOfGyration name="Radius of gyration" units="m" value="4.516E-10" />
<SolubilityParameter name="Solubility parameter" units="J0.5/m1.5" value="18330" />
<VanDerWaalsVolume name="Van der Waals volume" units="m3/kmol" value="0.09296" />
<VanDerWaalsArea name="Van der Waals area" units="m2/kmol" value="1.168E+09" />
<HeatOfFormation name="IG heat of formation" units="J/kmol" value="-4.054E+07" />
<GibbsEnergyOfFormation name="IG Gibbs energy of formation" units="J/kmol" value="1.231E+08" />
<AbsEntropy name="IG absolute entropy" units="J/kmol/K" value="422500" />
<HeatOfFusionAtMeltingPoint name="Heat of fusion at melting point" units="J/kmol" value="1.072E+07" />
<MatthiasCopemanC1 name="Mathias-Copeman C1" units="_" value="1.15" />
<HeatOfCombustion name="Standard net heat of combustion LHV" units="J/kmol" value="-5.532E+09" />
<SolidDensity name="Solid density" units="kmol/m3">
  <eqno value="2" />
  <A value="8.728" />
  <B value="-0.0038845" />
  <C value="0" />
  <D value="0" />
  <E value="0" />
  <Tmin units="K" value="99.78" />
  <Tmax units="K" value="249.46" />
  </SolidDensity>
<LiquidDensity name="Liquid density" units="kmol/m3">
  <eqno value="105" />
  <A value="0.5261" />
  <B value="0.25428" />
  <C value="679" />
  <D value="0.28565" />
  <Tmin units="K" value="249.46" />
  <Tmax units="K" value="679" />
  </LiquidDensity>
<VaporPressure name="Vapour pressure" units="Pa">
  <eqno value="101" />
  <A value="108.28" />
  <B value="-9936.6" />
  <C value="-12.519" />
  <D value="0.0000062754" />
  <E value="2" />
  <Tmin units="K" value="249.46" />
  <Tmax units="K" value="679" />
  </VaporPressure>
<HeatOfVaporization name="Heat of vaporization" units="J/kmol">
  <eqno value="106" />
  <A value="6.6549E+07" />
  <B value="0.31372" />
  <C value="0.25924" />
  <D value="-0.3264" />
  <E value="0.12301" />
  <Tmin units="K" value="249.46" />
  <Tmax units="K" value="679" />
  </HeatOfVaporization>
<SolidHeatCapacityCp name="Solid heat capacity" units="J/kmol/K">
  <eqno value="100" />
  <A value="88.391" />
  <B value="1331.3" />
  <C value="-5.2242" />
  <D value="0.018095" />
  <E value="-0.000025164" />
  <Tmin units="K" value="92.4" />
  <Tmax units="K" value="249.46" />
  </SolidHeatCapacityCp>
<LiquidHeatCapacityCp name="Liquid heat capacity" units="J/kmol/K">
  <eqno value="16" />
  <A value="180380" />
  <B value="-63.604" />
  <C value="9.2496" />
  <D value="0.0072443" />
  <E value="-0.0000031051" />
  <Tmin units="K" value="249.46" />
  <Tmax units="K" value="480" />
  </LiquidHeatCapacityCp>
<IdealGasHeatCapacityCp name="Ideal gas heat capacity" units="J/kmol/K">
  <eqno value="16" />
  <A value="109230" />
  <B value="-579.21" />
  <C value="13.116" />
  <D value="0.00014705" />
  <E value="-5.951E-08" />
  <Tmin units="K" value="150" />
  <Tmax units="K" value="1500" />
  </IdealGasHeatCapacityCp>
<SecondVirialCoefficient name="Second virial coefficient" units="m3/kmol">
  <eqno value="104" />
  <A value="0.3267" />
  <B value="-429.83" />
  <C value="-108.17" />
  <D value="-65519" />
  <E value="104920" />
  <Tmin units="K" value="339.5" />
  <Tmax units="K" value="1500" />
  </SecondVirialCoefficient>
<LiquidViscosity name="Liquid viscosity" units="Pa.s">
  <eqno value="101" />
  <A value="-14.031" />
  <B value="1747.6" />
  <C value="0.263" />
  <D value="-3.7653E-07" />
  <E value="2" />
  <Tmin units="K" value="249.46" />
  <Tmax units="K" value="573" />
  </LiquidViscosity>
<VaporViscosity name="Vapour viscosity" units="Pa.s">
  <eqno value="102" />
  <A value="6.7114E-07" />
  <B value="0.50662" />
  <C value="335.88" />
  <D value="-402.07" />
  <Tmin units="K" value="249.46" />
  <Tmax units="K" value="1000" />
  </VaporViscosity>
<LiquidThermalConductivity name="Liquid thermal conductivity" units="W/m/K">
  <eqno value="16" />
  <A value="-0.064932" />
  <B value="-8.9077" />
  <C value="-1.3593" />
  <D value="-0.00066705" />
  <E value="-6.8372E-07" />
  <Tmin units="K" value="249.46" />
  <Tmax units="K" value="471.15" />
  </LiquidThermalConductivity>
<VaporThermalConductivity name="Vapour thermal conductivity" units="W/m/K">
  <eqno value="102" />
  <A value="0.000082384" />
  <B value="1.0555" />
  <C value="595.15" />
  <D value="34335" />
  <Tmin units="K" value="249.46" />
  <Tmax units="K" value="1000" />
  </VaporThermalConductivity>
<SurfaceTension name="Surface tension" units="N/m">
  <eqno value="16" />
  <A value="-0.0077784" />
  <B value="249.63" />
  <C value="-4.8091" />
  <D value="0.0051648" />
  <E value="-0.0000085507" />
  <Tmin units="K" value="249.46" />
  <Tmax units="K" value="679" />
  </SurfaceTension>
<RPPHeatCapacityCp name="Ideal gas heat capacity (RPP)" units="J/kmol/K">
  <eqno value="4" />
  <A value="15661" />
  <B value="655.05" />
  <C value="-0.30287" />
  <D value="0.000047023" />
  <Tmin units="K" value="150" />
  <Tmax units="K" value="1500" />
  </RPPHeatCapacityCp>
<AntoineVaporPressure name="Antoine" units="Pa">
  <eqno value="10" />
  <A value="21.323" />
  <B value="3961.7" />
  <C value="-66.892" />
  <Tmin units="K" value="407.71" />
  <Tmax units="K" value="610" />
  </AntoineVaporPressure>
<LiquidViscosityRPS name="Liquid viscosity (RPS)" units="Pa.s">
  <eqno value="12" />
  <A value="-2.4676" />
  <B value="-0.013966" />
  <Tmin units="K" value="249.46" />
  <Tmax units="K" value="471.15" />
  </LiquidViscosityRPS>
<COSTALDVolume name="COSTLD characteristic volume (V*)" units="m3/kmol" value="0.512922" />
<DiameterLJ name="Lennard Jones diameter" units="m" value="7.327233E-10" />
<EnergyLJ name="Lennard Jones energy" units="K" value="319.2893" />
<RacketParameter name="Rackett parameter" units="_" value="0.254" />
<FullerVolume name="Fuller et al. diffusion volume" units="_" value="173.04" />
<MatthiasCopemanC2 name="Mathias-Copeman C2" units="_" value="0" />
<Parachor name="Parachor" units="kg0.25.m3/s0.5/kmol" value="0.0649311" />
<SpecificGravity name="Specific gravity" units="_" value="0.894741" />
<Charge name="Charge" units="_" value="0" />
<CostaldAcentricFactor name="SRK acentric factor" units="_" value="0.46" />
<WilsonVolume name="Wilson volume" units="m3/kmol" value="0.151385" />
<UniquacR name="UNIQUAC r" units="_" value="6.1278" />
<UniquacQ name="UNIQUAC q" units="_" value="4.672" />
<ApiSrkS2 name="API-SRK s2" units="_" value="0.019944" />
<MatthiasCopemanC3 name="Mathias-Copeman C3" units="_" value="0" />
<ChaoSeaderAcentricFactor name="Chao-Seader acentric factor" units="_" value="0.426" />
<ChaoSeaderSolubilityParameter name="Chao-Seader solubility parameter" units="J0.5/m1.5" value="18330" />
<ChaoSeaderLiquidVolume name="Chao-Seader liquid volume" units="m3/kmol" value="0.151385" />
<UnifacVLE name="UNIFAC">
  <group id="10" value="2" />
  <group id="12" value="4" />
  </UnifacVLE>
<UnifacLLE name="UNIFAC-LLE">
  <group id="9" value="2" />
  <group id="11" value="4" />
  </UnifacLLE>
<Asog name="ASOG">
  <group id="1" value="4" />
  <group id="10" value="2" />
  <group id="11" value="4" />
  </Asog>
<GCmethod name="PPR78">
  <group id="7" value="2" />
  <group id="8" value="4" />
  <group id="1" value="4" />
  </GCmethod>
<Umr name="UMR">
  <group id="10" value="2" />
  <group id="12" value="4" />
  </Umr>
<ModifiedUnifac name="Modified UNIFAC">
  <group id="9" value="2" />
  <group id="11" value="4" />
  </ModifiedUnifac>
<CAS name="CAS number" value="527-53-7" />
<Smiles name="SMILES" value="c1(C)c(C)c(C)cc(C)c1" />
</compound>

