<compound>
<LibraryIndex name="Index" value="1592" />
<CompoundID name="Name" value="1,2,4-trichlorobenzene" />
<StructureFormula name="Structure" value="(C6H3)Cl3" />
<Family name="Family" value="29" />
<CriticalTemperature name="Critical temperature" units="K" value="725" />
<CriticalPressure name="Critical pressure" units="Pa" value="3720000" />
<CriticalVolume name="Critical volume" units="m3/kmol" value="0.395" />
<CriticalCompressibility name="Critical compressibility factor" units="_" value="0.244" />
<NormalBoilingPointTemperature name="Normal boiling point" units="K" value="486.15" />
<NormalMeltingPointTemperature name="Melting point" units="K" value="290.15" />
<TriplePointTemperature name="Triple point temperature" units="K" value="290.15" />
<TriplePointPressure name="Triple point pressure" units="Pa" value="33.0937" />
<MolecularWeight name="Molecular weight" units="kg/kmol" value="181.447" />
<LiquidVolumeAtNormalBoilingPoint name="Liquid molar volume at normal boiling point" units="m3/kmol" value="0.12525" />
<AcentricityFactor name="Acentric factor" units="_" value="0.358106" />
<RadiusOfGyration name="Radius of gyration" units="m" value="4.832E-10" />
<SolubilityParameter name="Solubility parameter" units="J0.5/m1.5" value="20620" />
<DipoleMoment name="Dipole moment" units="Coulomb.m" value="4.20291E-30" />
<VanDerWaalsVolume name="Van der Waals volume" units="m3/kmol" value="0.10098" />
<VanDerWaalsArea name="Van der Waals area" units="m2/kmol" value="1.233E+09" />
<HeatOfFormation name="IG heat of formation" units="J/kmol" value="-1.1757E+07" />
<GibbsEnergyOfFormation name="IG Gibbs energy of formation" units="J/kmol" value="4.30523E+07" />
<AbsEntropy name="IG absolute entropy" units="J/kmol/K" value="380911" />
<HeatOfFusionAtMeltingPoint name="Heat of fusion at melting point" units="J/kmol" value="1.55647E+07" />
<HeatOfCombustion name="Standard net heat of combustion LHV" units="J/kmol" value="-2.65632E+09" />
<SolidDensity name="Solid density" units="kmol/m3">
  <eqno value="2" />
  <A value="10.194" />
  <B value="-0.0039041" />
  <Tmin units="K" value="116.06" />
  <Tmax units="K" value="290.15" />
  </SolidDensity>
<LiquidDensity name="Liquid density" units="kmol/m3">
  <eqno value="105" />
  <A value="0.61713" />
  <B value="0.2524" />
  <C value="725" />
  <D value="0.2857" />
  <Tmin units="K" value="290.15" />
  <Tmax units="K" value="725" />
  </LiquidDensity>
<VaporPressure name="Vapour pressure" units="Pa">
  <eqno value="101" />
  <A value="47.20405" />
  <B value="-7460.647" />
  <C value="-3.164866" />
  <D value="-3.316432E-06" />
  <E value="2" />
  <Tmin units="K" value="290.15" />
  <Tmax units="K" value="725" />
  </VaporPressure>
<HeatOfVaporization name="Heat of vaporization" units="J/kmol">
  <eqno value="106" />
  <A value="6.897E+07" />
  <B value="0.4026" />
  <C value="0" />
  <D value="0" />
  <E value="0" />
  <Tmin units="K" value="290.15" />
  <Tmax units="K" value="725" />
  </HeatOfVaporization>
<SolidHeatCapacityCp name="Solid heat capacity" units="J/kmol/K">
  <eqno value="100" />
  <A value="6586.2" />
  <B value="796.22" />
  <C value="-1.4691" />
  <D value="0.0035279" />
  <E value="-0.0000037266" />
  <Tmin units="K" value="50" />
  <Tmax units="K" value="290.15" />
  </SolidHeatCapacityCp>
<LiquidHeatCapacityCp name="Liquid heat capacity" units="J/kmol/K">
  <eqno value="16" />
  <A value="145370" />
  <B value="234.69" />
  <C value="6.2789" />
  <D value="0.017012" />
  <E value="-0.000015675" />
  <Tmin units="K" value="290.15" />
  <Tmax units="K" value="486.15" />
  </LiquidHeatCapacityCp>
<IdealGasHeatCapacityCp name="Ideal gas heat capacity" units="J/kmol/K">
  <eqno value="16" />
  <A value="63130" />
  <B value="-426.63" />
  <C value="12.569" />
  <D value="-0.000095696" />
  <E value="1.4713E-08" />
  <Tmin units="K" value="200" />
  <Tmax units="K" value="1500" />
  </IdealGasHeatCapacityCp>
<SecondVirialCoefficient name="Second virial coefficient" units="m3/kmol">
  <eqno value="104" />
  <A value="0.27285" />
  <B value="-397.07" />
  <C value="-111.19" />
  <D value="28956" />
  <E value="-249060" />
  <Tmin units="K" value="362.5" />
  <Tmax units="K" value="2000" />
  </SecondVirialCoefficient>
<LiquidViscosity name="Liquid viscosity" units="Pa.s">
  <eqno value="101" />
  <A value="-241" />
  <B value="9893.2" />
  <C value="36.115" />
  <D value="-0.000047458" />
  <E value="2" />
  <Tmin units="K" value="273.15" />
  <Tmax units="K" value="580" />
  </LiquidViscosity>
<VaporViscosity name="Vapour viscosity" units="Pa.s">
  <eqno value="102" />
  <A value="9.2097E-08" />
  <B value="0.80621" />
  <C value="99.511" />
  <D value="1477.5" />
  <Tmin units="K" value="486.15" />
  <Tmax units="K" value="1000" />
  </VaporViscosity>
<LiquidThermalConductivity name="Liquid thermal conductivity" units="W/m/K">
  <eqno value="16" />
  <A value="0.070105" />
  <B value="-290.72" />
  <C value="-0.20366" />
  <D value="-0.0074415" />
  <E value="0.0000024779" />
  <Tmin units="K" value="285.15" />
  <Tmax units="K" value="486.15" />
  </LiquidThermalConductivity>
<VaporThermalConductivity name="Vapour thermal conductivity" units="W/m/K">
  <eqno value="102" />
  <A value="-743.07" />
  <B value="0.74159" />
  <C value="-2.1746E+09" />
  <D value="-6.4502E+10" />
  <Tmin units="K" value="290.15" />
  <Tmax units="K" value="1000" />
  </VaporThermalConductivity>
<SurfaceTension name="Surface tension" units="N/m">
  <eqno value="16" />
  <A value="-0.0099086" />
  <B value="212.19" />
  <C value="-4.1394" />
  <D value="0.0037352" />
  <E value="-0.0000066653" />
  <Tmin units="K" value="290.15" />
  <Tmax units="K" value="725" />
  </SurfaceTension>
<RPPHeatCapacityCp name="Ideal gas heat capacity (RPP)" units="J/kmol/K">
  <eqno value="4" />
  <A value="13485" />
  <B value="490.78" />
  <C value="-0.36646" />
  <D value="0.000098813" />
  <Tmin units="K" value="200" />
  <Tmax units="K" value="1500" />
  </RPPHeatCapacityCp>
<AntoineVaporPressure name="Antoine" units="Pa">
  <eqno value="10" />
  <A value="21.92" />
  <B value="4632.7" />
  <C value="-40.49" />
  <Tmin units="K" value="435.15" />
  <Tmax units="K" value="633.45" />
  </AntoineVaporPressure>
<LiquidViscosityRPS name="Liquid viscosity (RPS)" units="Pa.s">
  <eqno value="13" />
  <A value="-3.8536" />
  <B value="-0.0055643" />
  <C value="-0.0000085016" />
  <Tmin units="K" value="273.15" />
  <Tmax units="K" value="580" />
  </LiquidViscosityRPS>
<COSTALDVolume name="COSTLD characteristic volume (V*)" units="m3/kmol" value="0.563146" />
<DiameterLJ name="Lennard Jones diameter" units="m" value="7.440056E-10" />
<EnergyLJ name="Lennard Jones energy" units="K" value="295.0221" />
<RacketParameter name="Rackett parameter" units="_" value="0.259136" />
<FullerVolume name="Fuller et al. diffusion volume" units="_" value="147.03" />
<Parachor name="Parachor" units="kg0.25.m3/s0.5/kmol" value="0.0577" />
<SpecificGravity name="Specific gravity" units="_" value="1.4595" />
<Charge name="Charge" units="_" value="0" />
<CostaldAcentricFactor name="SRK acentric factor" units="_" value="0.358106" />
<WilsonVolume name="Wilson volume" units="m3/kmol" value="0.12525" />
<UniquacR name="UNIQUAC r" units="_" value="5.0625" />
<UniquacQ name="UNIQUAC q" units="_" value="3.732" />
<ChaoSeaderAcentricFactor name="Chao-Seader acentric factor" units="_" value="0.358106" />
<ChaoSeaderSolubilityParameter name="Chao-Seader solubility parameter" units="J0.5/m1.5" value="20618.1" />
<ChaoSeaderLiquidVolume name="Chao-Seader liquid volume" units="m3/kmol" value="0.12525" />
<UnifacVLE name="UNIFAC">
  <group id="10" value="3" />
  <group id="54" value="3" />
  </UnifacVLE>
<UnifacLLE name="UNIFAC-LLE">
  <group id="9" value="3" />
  <group id="40" value="3" />
  </UnifacLLE>
<Asog name="ASOG">
  <group id="10" value="3" />
  <group id="11" value="3" />
  <group id="42" value="3" />
  </Asog>
<Umr name="UMR">
  <group id="10" value="3" />
  <group id="54" value="3" />
  </Umr>
<ModifiedUnifac name="Modified UNIFAC">
  <group id="9" value="3" />
  <group id="53" value="3" />
  </ModifiedUnifac>
<CAS name="CAS number" value="120-82-1" />
<Smiles name="SMILES" value="c1(Cl)c(Cl)cc(Cl)cc1" />
</compound>

