<compound>
<LibraryIndex name="Index" value="532" />
<CompoundID name="Name" value="1,2,4,5-tetramethylbenzene" />
<StructureFormula name="Structure" value="(C6H2)(CH3)4" />
<Family name="Family" value="10" />
<CriticalTemperature name="Critical temperature" units="K" value="676" />
<CriticalPressure name="Critical pressure" units="Pa" value="2900000" />
<CriticalVolume name="Critical volume" units="m3/kmol" value="0.482" />
<CriticalCompressibility name="Critical compressibility factor" units="_" value="0.249" />
<NormalBoilingPointTemperature name="Normal boiling point" units="K" value="470" />
<NormalMeltingPointTemperature name="Melting point" units="K" value="352.384" />
<TriplePointTemperature name="Triple point temperature" units="K" value="352.384" />
<TriplePointPressure name="Triple point pressure" units="Pa" value="1784.79" />
<MolecularWeight name="Molecular weight" units="kg/kmol" value="134.2182" />
<LiquidVolumeAtNormalBoilingPoint name="Liquid molar volume at normal boiling point" units="m3/kmol" value="0.15228" />
<AcentricityFactor name="Acentric factor" units="_" value="0.423" />
<RadiusOfGyration name="Radius of gyration" units="m" value="4.502E-10" />
<SolubilityParameter name="Solubility parameter" units="J0.5/m1.5" value="17140" />
<DipoleMoment name="Dipole moment" units="Coulomb.m" value="0" />
<VanDerWaalsVolume name="Van der Waals volume" units="m3/kmol" value="0.09296" />
<VanDerWaalsArea name="Van der Waals area" units="m2/kmol" value="1.168E+09" />
<HeatOfFormation name="IG heat of formation" units="J/kmol" value="-4.527E+07" />
<GibbsEnergyOfFormation name="IG Gibbs energy of formation" units="J/kmol" value="1.177E+08" />
<AbsEntropy name="IG absolute entropy" units="J/kmol/K" value="418500" />
<HeatOfFusionAtMeltingPoint name="Heat of fusion at melting point" units="J/kmol" value="2.1E+07" />
<MatthiasCopemanC1 name="Mathias-Copeman C1" units="_" value="1.10541" />
<HeatOfCombustion name="Standard net heat of combustion LHV" units="J/kmol" value="-5.507E+09" />
<SolidDensity name="Solid density" units="kmol/m3">
  <eqno value="2" />
  <A value="7.6888" />
  <B value="-1.9613E-16" />
  <C value="0" />
  <D value="0" />
  <E value="0" />
  <Tmin units="K" value="0" />
  <Tmax units="K" value="9.5" />
  </SolidDensity>
<LiquidDensity name="Liquid density" units="kmol/m3">
  <eqno value="105" />
  <A value="0.65779" />
  <B value="0.28461" />
  <C value="677.16" />
  <D value="0.31429" />
  <Tmin units="K" value="288.15" />
  <Tmax units="K" value="677.15" />
  </LiquidDensity>
<VaporPressure name="Vapour pressure" units="Pa">
  <eqno value="101" />
  <A value="96.028" />
  <B value="-9355.7" />
  <C value="-10.676" />
  <D value="0.0000049509" />
  <E value="2" />
  <Tmin units="K" value="346.75" />
  <Tmax units="K" value="676" />
  </VaporPressure>
<HeatOfVaporization name="Heat of vaporization" units="J/kmol">
  <eqno value="106" />
  <A value="1.607707E+08" />
  <B value="4.915197" />
  <C value="-10.37671" />
  <D value="9.303886" />
  <E value="-3.220797" />
  <Tmin units="K" value="298.15" />
  <Tmax units="K" value="658.97" />
  </HeatOfVaporization>
<SolidHeatCapacityCp name="Solid heat capacity" units="J/kmol/K">
  <eqno value="100" />
  <A value="1997.1" />
  <B value="1178.3" />
  <C value="-3.2722" />
  <D value="0.0077475" />
  <E value="-0.0000066937" />
  <Tmin units="K" value="92.2" />
  <Tmax units="K" value="352.38" />
  </SolidHeatCapacityCp>
<LiquidHeatCapacityCp name="Liquid heat capacity" units="J/kmol/K">
  <eqno value="16" />
  <A value="139940" />
  <B value="1169.1" />
  <C value="1.2977" />
  <D value="0.02859" />
  <E value="-0.000023286" />
  <Tmin units="K" value="352.15" />
  <Tmax units="K" value="473.15" />
  </LiquidHeatCapacityCp>
<IdealGasHeatCapacityCp name="Ideal gas heat capacity" units="J/kmol/K">
  <eqno value="16" />
  <A value="110940" />
  <B value="-562.53" />
  <C value="13.019" />
  <D value="0.00027207" />
  <E value="-1.0669E-07" />
  <Tmin units="K" value="200" />
  <Tmax units="K" value="1500" />
  </IdealGasHeatCapacityCp>
<SecondVirialCoefficient name="Second virial coefficient" units="m3/kmol">
  <eqno value="104" />
  <A value="0.33617" />
  <B value="-444.13" />
  <C value="-103.01" />
  <D value="-89798" />
  <E value="177990" />
  <Tmin units="K" value="337.58" />
  <Tmax units="K" value="1500" />
  </SecondVirialCoefficient>
<LiquidViscosity name="Liquid viscosity" units="Pa.s">
  <eqno value="101" />
  <A value="-9.4175" />
  <B value="1452.8" />
  <C value="-0.39341" />
  <D value="2.9469E-07" />
  <E value="2" />
  <Tmin units="K" value="352.38" />
  <Tmax units="K" value="573" />
  </LiquidViscosity>
<VaporViscosity name="Vapour viscosity" units="Pa.s">
  <eqno value="102" />
  <A value="7.2635E-07" />
  <B value="0.49106" />
  <C value="324.48" />
  <D value="3435.1" />
  <Tmin units="K" value="352.38" />
  <Tmax units="K" value="1000" />
  </VaporViscosity>
<LiquidThermalConductivity name="Liquid thermal conductivity" units="W/m/K">
  <eqno value="16" />
  <A value="0.023024" />
  <B value="-350.01" />
  <C value="0.1946" />
  <D value="-0.0044419" />
  <E value="6.7822E-07" />
  <Tmin units="K" value="352.38" />
  <Tmax units="K" value="613.15" />
  </LiquidThermalConductivity>
<VaporThermalConductivity name="Vapour thermal conductivity" units="W/m/K">
  <eqno value="102" />
  <A value="0.000066062" />
  <B value="1.0649" />
  <C value="306.1" />
  <D value="93850" />
  <Tmin units="K" value="352.384" />
  <Tmax units="K" value="1000" />
  </VaporThermalConductivity>
<SurfaceTension name="Surface tension" units="N/m">
  <eqno value="16" />
  <A value="-0.022308" />
  <B value="-40.303" />
  <C value="-2.2467" />
  <D value="-0.001602" />
  <E value="-9.4735E-07" />
  <Tmin units="K" value="352.38" />
  <Tmax units="K" value="658.97" />
  </SurfaceTension>
<RPPHeatCapacityCp name="Ideal gas heat capacity (RPP)" units="J/kmol/K">
  <eqno value="100" />
  <A value="27870" />
  <B value="560.2" />
  <C value="0.043817" />
  <D value="-0.000406" />
  <E value="0.0000001904" />
  <Tmin units="K" value="298" />
  <Tmax units="K" value="1000" />
  </RPPHeatCapacityCp>
<AntoineVaporPressure name="Antoine" units="Pa">
  <eqno value="10" />
  <A value="21.278" />
  <B value="3898.8" />
  <C value="-70.102" />
  <Tmin units="K" value="412.75" />
  <Tmax units="K" value="607.87" />
  </AntoineVaporPressure>
<LiquidViscosityRPS name="Liquid viscosity (RPS)" units="Pa.s">
  <eqno value="12" />
  <A value="-4.2617" />
  <B value="-0.0095155" />
  <Tmin units="K" value="352.38" />
  <Tmax units="K" value="469.99" />
  </LiquidViscosityRPS>
<COSTALDVolume name="COSTLD characteristic volume (V*)" units="m3/kmol" value="0.512922" />
<DiameterLJ name="Lennard Jones diameter" units="m" value="7.75928E-10" />
<EnergyLJ name="Lennard Jones energy" units="K" value="295.9222" />
<RacketParameter name="Rackett parameter" units="_" value="0.249" />
<FullerVolume name="Fuller et al. diffusion volume" units="_" value="173.04" />
<MatthiasCopemanC2 name="Mathias-Copeman C2" units="_" value="0" />
<Parachor name="Parachor" units="kg0.25.m3/s0.5/kmol" value="0.0637472" />
<SpecificGravity name="Specific gravity" units="_" value="0.89203" />
<Charge name="Charge" units="_" value="0" />
<CostaldAcentricFactor name="SRK acentric factor" units="_" value="0.423" />
<WilsonVolume name="Wilson volume" units="m3/kmol" value="0.15228" />
<UniquacR name="UNIQUAC r" units="_" value="6.1278" />
<UniquacQ name="UNIQUAC q" units="_" value="4.672" />
<ApiSrkS2 name="API-SRK s2" units="_" value="-0.014791" />
<MatthiasCopemanC3 name="Mathias-Copeman C3" units="_" value="0" />
<ChaoSeaderAcentricFactor name="Chao-Seader acentric factor" units="_" value="0.423" />
<ChaoSeaderSolubilityParameter name="Chao-Seader solubility parameter" units="J0.5/m1.5" value="17140" />
<ChaoSeaderLiquidVolume name="Chao-Seader liquid volume" units="m3/kmol" value="0.15228" />
<UnifacVLE name="UNIFAC">
  <group id="10" value="2" />
  <group id="12" value="4" />
  </UnifacVLE>
<UnifacLLE name="UNIFAC-LLE">
  <group id="9" value="2" />
  <group id="11" value="4" />
  </UnifacLLE>
<Asog name="ASOG">
  <group id="1" value="4" />
  <group id="10" value="2" />
  <group id="11" value="4" />
  </Asog>
<GCmethod name="PPR78">
  <group id="7" value="2" />
  <group id="8" value="4" />
  <group id="1" value="4" />
  </GCmethod>
<Umr name="UMR">
  <group id="10" value="2" />
  <group id="12" value="4" />
  </Umr>
<ModifiedUnifac name="Modified UNIFAC">
  <group id="9" value="2" />
  <group id="11" value="4" />
  </ModifiedUnifac>
<CAS name="CAS number" value="95-93-2" />
<Smiles name="SMILES" value="c1(C)c(C)cc(C)c(C)c1" />
</compound>

