<compound>
<LibraryIndex name="Index" value="1523" />
<CompoundID name="Name" value="1,2-dichloroethane" />
<StructureFormula name="Structure" value="CH2ClCH2Cl" />
<Family name="Family" value="65" />
<CriticalTemperature name="Critical temperature" units="K" value="561" />
<CriticalPressure name="Critical pressure" units="Pa" value="5400000" />
<CriticalVolume name="Critical volume" units="m3/kmol" value="0.22" />
<CriticalCompressibility name="Critical compressibility factor" units="_" value="0.255" />
<NormalBoilingPointTemperature name="Normal boiling point" units="K" value="356.66" />
<NormalMeltingPointTemperature name="Melting point" units="K" value="237.49" />
<TriplePointTemperature name="Triple point temperature" units="K" value="237.49" />
<TriplePointPressure name="Triple point pressure" units="Pa" value="237.127" />
<MolecularWeight name="Molecular weight" units="kg/kmol" value="98.95916" />
<LiquidVolumeAtNormalBoilingPoint name="Liquid molar volume at normal boiling point" units="m3/kmol" value="0.07945" />
<AcentricityFactor name="Acentric factor" units="_" value="0.286" />
<RadiusOfGyration name="Radius of gyration" units="m" value="2.827E-10" />
<SolubilityParameter name="Solubility parameter" units="J0.5/m1.5" value="20260" />
<DipoleMoment name="Dipole moment" units="Coulomb.m" value="4.8E-30" />
<VanDerWaalsVolume name="Van der Waals volume" units="m3/kmol" value="0.0437" />
<VanDerWaalsArea name="Van der Waals area" units="m2/kmol" value="6.3E+08" />
<HeatOfFormation name="IG heat of formation" units="J/kmol" value="-1.2979E+08" />
<GibbsEnergyOfFormation name="IG Gibbs energy of formation" units="J/kmol" value="-7.3945E+07" />
<AbsEntropy name="IG absolute entropy" units="J/kmol/K" value="308280" />
<HeatOfFusionAtMeltingPoint name="Heat of fusion at melting point" units="J/kmol" value="8830000" />
<MatthiasCopemanC1 name="Mathias-Copeman C1" units="_" value="0.98897" />
<HeatOfCombustion name="Standard net heat of combustion LHV" units="J/kmol" value="-1.105E+09" />
<SolidDensity name="Solid density" units="kmol/m3">
  <eqno value="2" />
  <A value="14.854" />
  <B value="2.2061E-09" />
  <Tmin units="K" value="223.15" />
  <Tmax units="K" value="232.65" />
  </SolidDensity>
<LiquidDensity name="Liquid density" units="kmol/m3">
  <eqno value="105" />
  <A value="1.1942" />
  <B value="0.27053" />
  <C value="561.61" />
  <D value="0.29157" />
  <Tmin units="K" value="237.49" />
  <Tmax units="K" value="561.6" />
  </LiquidDensity>
<VaporPressure name="Vapour pressure" units="Pa">
  <eqno value="101" />
  <A value="81.47902" />
  <B value="-6503.169" />
  <C value="-8.960273" />
  <D value="7.32894E-06" />
  <E value="2" />
  <Tmin units="K" value="237.49" />
  <Tmax units="K" value="561.6" />
  </VaporPressure>
<HeatOfVaporization name="Heat of vaporization" units="J/kmol">
  <eqno value="106" />
  <A value="5.072427E+07" />
  <B value="0.517321" />
  <C value="0.205828" />
  <D value="-0.637156" />
  <E value="0.265499" />
  <Tmin units="K" value="237.49" />
  <Tmax units="K" value="544.54" />
  </HeatOfVaporization>
<SolidHeatCapacityCp name="Solid heat capacity" units="J/kmol/K">
  <eqno value="100" />
  <A value="32947" />
  <B value="-881.85" />
  <C value="32.363" />
  <D value="-0.29817" />
  <E value="0.00092602" />
  <Tmin units="K" value="40.69" />
  <Tmax units="K" value="179.69" />
  </SolidHeatCapacityCp>
<LiquidHeatCapacityCp name="Liquid heat capacity" units="J/kmol/K">
  <eqno value="16" />
  <A value="92757" />
  <B value="224.15" />
  <C value="8.5223" />
  <D value="0.0025656" />
  <E value="0.000005106" />
  <Tmin units="K" value="237.49" />
  <Tmax units="K" value="522.04" />
  </LiquidHeatCapacityCp>
<IdealGasHeatCapacityCp name="Ideal gas heat capacity" units="J/kmol/K">
  <eqno value="16" />
  <A value="62073" />
  <B value="-758.84" />
  <C value="12.345" />
  <D value="-0.0004196" />
  <E value="0.0000001146" />
  <Tmin units="K" value="200" />
  <Tmax units="K" value="1500" />
  </IdealGasHeatCapacityCp>
<SecondVirialCoefficient name="Second virial coefficient" units="m3/kmol">
  <eqno value="104" />
  <A value="0.15478" />
  <B value="-169.14" />
  <C value="-26.602" />
  <D value="737.05" />
  <E value="-4862.1" />
  <Tmin units="K" value="243" />
  <Tmax units="K" value="1964" />
  </SecondVirialCoefficient>
<LiquidViscosity name="Liquid viscosity" units="Pa.s">
  <eqno value="101" />
  <A value="25.747" />
  <B value="-385.45" />
  <C value="-5.5912" />
  <D value="0.0000027937" />
  <E value="2" />
  <Tmin units="K" value="237.49" />
  <Tmax units="K" value="550" />
  </LiquidViscosity>
<VaporViscosity name="Vapour viscosity" units="Pa.s">
  <eqno value="102" />
  <A value="1.1983E-07" />
  <B value="0.79504" />
  <C value="20.791" />
  <D value="14003" />
  <Tmin units="K" value="237.49" />
  <Tmax units="K" value="1000" />
  </VaporViscosity>
<LiquidThermalConductivity name="Liquid thermal conductivity" units="W/m/K">
  <eqno value="16" />
  <A value="0.015945" />
  <B value="-110.67" />
  <C value="-0.74013" />
  <D value="-0.0032664" />
  <E value="-5.0786E-07" />
  <Tmin units="K" value="244.26" />
  <Tmax units="K" value="499.82" />
  </LiquidThermalConductivity>
<VaporThermalConductivity name="Vapour thermal conductivity" units="W/m/K">
  <eqno value="102" />
  <A value="0.00023592" />
  <B value="0.93945" />
  <C value="1368.6" />
  <D value="23794" />
  <Tmin units="K" value="237.49" />
  <Tmax units="K" value="1000" />
  </VaporThermalConductivity>
<SurfaceTension name="Surface tension" units="N/m">
  <eqno value="16" />
  <A value="-0.022707" />
  <B value="74.78" />
  <C value="-2.954" />
  <D value="0.00056054" />
  <E value="-0.0000041954" />
  <Tmin units="K" value="237.49" />
  <Tmax units="K" value="544.54" />
  </SurfaceTension>
<RPPHeatCapacityCp name="Ideal gas heat capacity (RPP)" units="J/kmol/K">
  <eqno value="100" />
  <A value="24860" />
  <B value="192.87" />
  <C value="-0.03359" />
  <D value="-0.000094203" />
  <E value="0.0000000513" />
  <Tmin units="K" value="298" />
  <Tmax units="K" value="1000" />
  </RPPHeatCapacityCp>
<RelativeStaticPermittivity name="Relative static permittivity" units="_">
  <eqno value="120" />
  <A value="-8.970346" />
  <B value="-5150" />
  <C value="-30.9" />
  <Tmin units="K" value="279.15" />
  <Tmax units="K" value="449.15" />
  </RelativeStaticPermittivity>
<AntoineVaporPressure name="Antoine" units="Pa">
  <eqno value="10" />
  <A value="21.473" />
  <B value="3186" />
  <C value="-36.407" />
  <Tmin units="K" value="337.48" />
  <Tmax units="K" value="499.82" />
  </AntoineVaporPressure>
<LiquidViscosityRPS name="Liquid viscosity (RPS)" units="Pa.s">
  <eqno value="13" />
  <A value="-1.994" />
  <B value="-0.021914" />
  <C value="0.000015517" />
  <Tmin units="K" value="237.49" />
  <Tmax units="K" value="544.26" />
  </LiquidViscosityRPS>
<COSTALDVolume name="COSTLD characteristic volume (V*)" units="m3/kmol" value="0.231863" />
<DiameterLJ name="Lennard Jones diameter" units="m" value="5.805919E-10" />
<EnergyLJ name="Lennard Jones energy" units="K" value="267.5597" />
<FullerVolume name="Fuller et al. diffusion volume" units="_" value="83.04" />
<MatthiasCopemanC2 name="Mathias-Copeman C2" units="_" value="-0.73831" />
<Parachor name="Parachor" units="kg0.25.m3/s0.5/kmol" value="0.0334" />
<SpecificGravity name="Specific gravity" units="_" value="1.2604" />
<Charge name="Charge" units="_" value="0" />
<CostaldAcentricFactor name="SRK acentric factor" units="_" value="0.2876" />
<WilsonVolume name="Wilson volume" units="m3/kmol" value="0.0794424" />
<UniquacR name="UNIQUAC r" units="_" value="2.88" />
<UniquacQ name="UNIQUAC q" units="_" value="2.52" />
<MatthiasCopemanC3 name="Mathias-Copeman C3" units="_" value="1.2388" />
<ChaoSeaderAcentricFactor name="Chao-Seader acentric factor" units="_" value="0.2876" />
<ChaoSeaderSolubilityParameter name="Chao-Seader solubility parameter" units="J0.5/m1.5" value="20249.5" />
<ChaoSeaderLiquidVolume name="Chao-Seader liquid volume" units="m3/kmol" value="0.0794424" />
<UnifacVLE name="UNIFAC">
  <group id="45" value="2" />
  </UnifacVLE>
<UnifacLLE name="UNIFAC-LLE">
  <group id="31" value="2" />
  </UnifacLLE>
<Asog name="ASOG">
  <group id="2" value="2" />
  <group id="35" value="2" />
  </Asog>
<GCmethod name="PPR78">
  <group id="45" value="2" />
  </GCmethod>
<Umr name="UMR">
  <group id="45" value="2" />
  </Umr>
<ModifiedUnifac name="Modified UNIFAC">
  <group id="44" value="2" />
  </ModifiedUnifac>
<CAS name="CAS number" value="107-06-2" />
<Smiles name="SMILES" value="[Cl]CC[Cl]" />
</compound>

