<compound>
<LibraryIndex name="Index" value="1105" />
<CompoundID name="Name" value="1-butanol" />
<StructureFormula name="Structure" value="CH3(CH2)3OH" />
<Family name="Family" value="27" />
<CriticalTemperature name="Critical temperature" units="K" value="563.05" />
<CriticalPressure name="Critical pressure" units="Pa" value="4423000" />
<CriticalVolume name="Critical volume" units="m3/kmol" value="0.275" />
<CriticalCompressibility name="Critical compressibility factor" units="_" value="0.26" />
<NormalBoilingPointTemperature name="Normal boiling point" units="K" value="390.88" />
<NormalMeltingPointTemperature name="Melting point" units="K" value="183.85" />
<TriplePointTemperature name="Triple point temperature" units="K" value="184.51" />
<TriplePointPressure name="Triple point pressure" units="Pa" value="0.000320123" />
<MolecularWeight name="Molecular weight" units="kg/kmol" value="74.1216" />
<LiquidVolumeAtNormalBoilingPoint name="Liquid molar volume at normal boiling point" units="m3/kmol" value="0.09196" />
<AcentricityFactor name="Acentric factor" units="_" value="0.591" />
<RadiusOfGyration name="Radius of gyration" units="m" value="3.225E-10" />
<SolubilityParameter name="Solubility parameter" units="J0.5/m1.5" value="23510" />
<DipoleMoment name="Dipole moment" units="Coulomb.m" value="5.83737E-30" />
<VanDerWaalsVolume name="Van der Waals volume" units="m3/kmol" value="0.0524" />
<VanDerWaalsArea name="Van der Waals area" units="m2/kmol" value="7.62E+08" />
<HeatOfFormation name="IG heat of formation" units="J/kmol" value="-2.746E+08" />
<GibbsEnergyOfFormation name="IG Gibbs energy of formation" units="J/kmol" value="-1.503E+08" />
<AbsEntropy name="IG absolute entropy" units="J/kmol/K" value="361480" />
<HeatOfFusionAtMeltingPoint name="Heat of fusion at melting point" units="J/kmol" value="9372000" />
<MatthiasCopemanC1 name="Mathias-Copeman C1" units="_" value="1.0818" />
<HeatOfCombustion name="Standard net heat of combustion LHV" units="J/kmol" value="-2.45601E+09" />
<SolidDensity name="Solid density" units="kmol/m3">
  <eqno value="2" />
  <A value="14.1" />
  <B value="9.192E-09" />
  <Tmin units="K" value="184.51" />
  <Tmax units="K" value="194.01" />
  </SolidDensity>
<LiquidDensity name="Liquid density" units="kmol/m3">
  <eqno value="105" />
  <A value="0.7931" />
  <B value="0.24201" />
  <C value="563.05" />
  <D value="0.22263" />
  <Tmin units="K" value="184.51" />
  <Tmax units="K" value="543.08" />
  </LiquidDensity>
<VaporPressure name="Vapour pressure" units="Pa">
  <eqno value="101" />
  <A value="94.3424" />
  <B value="-9140.942" />
  <C value="-10.0038" />
  <D value="1.706963E-06" />
  <E value="2" />
  <Tmin units="K" value="184.51" />
  <Tmax units="K" value="563" />
  </VaporPressure>
<HeatOfVaporization name="Heat of vaporization" units="J/kmol">
  <eqno value="106" />
  <A value="1.03317E+08" />
  <B value="2.061287" />
  <C value="-3.612692" />
  <D value="3.240107" />
  <E value="-1.125287" />
  <Tmin units="K" value="184.51" />
  <Tmax units="K" value="563" />
  </HeatOfVaporization>
<SolidHeatCapacityCp name="Solid heat capacity" units="J/kmol/K">
  <eqno value="100" />
  <A value="-13649" />
  <B value="1130.7" />
  <C value="-3.374" />
  <D value="-0.0057232" />
  <E value="0.000046587" />
  <Tmin units="K" value="20" />
  <Tmax units="K" value="184.54" />
  </SolidHeatCapacityCp>
<LiquidHeatCapacityCp name="Liquid heat capacity" units="J/kmol/K">
  <eqno value="16" />
  <A value="118540" />
  <B value="928.1" />
  <C value="-3.4067" />
  <D value="0.053827" />
  <E value="-0.000053611" />
  <Tmin units="K" value="184.51" />
  <Tmax units="K" value="390.81" />
  </LiquidHeatCapacityCp>
<IdealGasHeatCapacityCp name="Ideal gas heat capacity" units="J/kmol/K">
  <eqno value="16" />
  <A value="63521" />
  <B value="-568.25" />
  <C value="12.587" />
  <D value="0.0001566" />
  <E value="-5.9966E-08" />
  <Tmin units="K" value="150" />
  <Tmax units="K" value="1500" />
  </IdealGasHeatCapacityCp>
<SecondVirialCoefficient name="Second virial coefficient" units="m3/kmol">
  <eqno value="104" />
  <A value="0.11374" />
  <B value="-82.42" />
  <C value="-54.273" />
  <D value="35653" />
  <E value="-154650" />
  <Tmin units="K" value="281.5" />
  <Tmax units="K" value="1500" />
  </SecondVirialCoefficient>
<LiquidViscosity name="Liquid viscosity" units="Pa.s">
  <eqno value="101" />
  <A value="-44.688" />
  <B value="3409.1" />
  <C value="4.8758" />
  <D value="-0.0000057302" />
  <E value="2" />
  <Tmin units="K" value="190" />
  <Tmax units="K" value="473" />
  </LiquidViscosity>
<VaporViscosity name="Vapour viscosity" units="Pa.s">
  <eqno value="102" />
  <A value="0.0000014735" />
  <B value="0.46162" />
  <C value="554.37" />
  <D value="6760.2" />
  <Tmin units="K" value="184.51" />
  <Tmax units="K" value="1000" />
  </VaporViscosity>
<LiquidThermalConductivity name="Liquid thermal conductivity" units="W/m/K">
  <eqno value="16" />
  <A value="0.019408" />
  <B value="-19.063" />
  <C value="-1.4625" />
  <D value="-0.0014843" />
  <E value="-4.7683E-07" />
  <Tmin units="K" value="184.51" />
  <Tmax units="K" value="390.81" />
  </LiquidThermalConductivity>
<VaporThermalConductivity name="Vapour thermal conductivity" units="W/m/K">
  <eqno value="102" />
  <A value="0.00022746" />
  <B value="1.1142" />
  <C value="3597.3" />
  <D value="-411420" />
  <Tmin units="K" value="184.51" />
  <Tmax units="K" value="712.94" />
  </VaporThermalConductivity>
<SurfaceTension name="Surface tension" units="N/m">
  <eqno value="16" />
  <A value="-0.033153" />
  <B value="70.924" />
  <C value="-3.2742" />
  <D value="0.0018256" />
  <E value="-0.0000040925" />
  <Tmin units="K" value="273.15" />
  <Tmax units="K" value="413.15" />
  </SurfaceTension>
<RPPHeatCapacityCp name="Ideal gas heat capacity (RPP)" units="J/kmol/K">
  <eqno value="100" />
  <A value="37141" />
  <B value="136.32" />
  <C value="0.55607" />
  <D value="-0.00080567" />
  <E value="3.2127E-07" />
  <Tmin units="K" value="50" />
  <Tmax units="K" value="1000" />
  </RPPHeatCapacityCp>
<RelativeStaticPermittivity name="Relative static permittivity" units="_">
  <eqno value="120" />
  <A value="-30.12876" />
  <B value="-11453.99" />
  <C value="-54.40369" />
  <Tmin units="K" value="283" />
  <Tmax units="K" value="563" />
  </RelativeStaticPermittivity>
<AntoineVaporPressure name="Antoine" units="Pa">
  <eqno value="10" />
  <A value="21.469" />
  <B value="2804" />
  <C value="-108.82" />
  <Tmin units="K" value="338.95" />
  <Tmax units="K" value="503.24" />
  </AntoineVaporPressure>
<LiquidViscosityRPS name="Liquid viscosity (RPS)" units="Pa.s">
  <eqno value="13" />
  <A value="12.049" />
  <B value="-0.092422" />
  <C value="0.00010714" />
  <Tmin units="K" value="190" />
  <Tmax units="K" value="390.81" />
  </LiquidViscosityRPS>
<COSTALDVolume name="COSTLD characteristic volume (V*)" units="m3/kmol" value="0.28409" />
<DiameterLJ name="Lennard Jones diameter" units="m" value="6.110187E-10" />
<EnergyLJ name="Lennard Jones energy" units="K" value="287.9812" />
<RacketParameter name="Rackett parameter" units="_" value="0.2538" />
<FullerVolume name="Fuller et al. diffusion volume" units="_" value="92.81" />
<MatthiasCopemanC2 name="Mathias-Copeman C2" units="_" value="2.3141" />
<Parachor name="Parachor" units="kg0.25.m3/s0.5/kmol" value="0.0364321" />
<SpecificGravity name="Specific gravity" units="_" value="0.813869" />
<Charge name="Charge" units="_" value="0" />
<CostaldAcentricFactor name="SRK acentric factor" units="_" value="0.5928" />
<WilsonVolume name="Wilson volume" units="m3/kmol" value="0.09197" />
<UniquacR name="UNIQUAC r" units="_" value="3.4543" />
<UniquacQ name="UNIQUAC q" units="_" value="3.052" />
<UniquacQP name="UNIQUAC q'" units="_" value="0.88" />
<ApiSrkS1 name="API-SRK s1" units="_" value="0.29395" />
<ApiSrkS2 name="API-SRK s2" units="_" value="1.005612" />
<MatthiasCopemanC3 name="Mathias-Copeman C3" units="_" value="-4.1355" />
<ChaoSeaderAcentricFactor name="Chao-Seader acentric factor" units="_" value="0.593" />
<ChaoSeaderSolubilityParameter name="Chao-Seader solubility parameter" units="J0.5/m1.5" value="23289.2" />
<ChaoSeaderLiquidVolume name="Chao-Seader liquid volume" units="m3/kmol" value="0.0919432" />
<UnifacVLE name="UNIFAC">
  <group id="1" value="1" />
  <group id="2" value="3" />
  <group id="15" value="1" />
  </UnifacVLE>
<UnifacLLE name="UNIFAC-LLE">
  <group id="1" value="1" />
  <group id="2" value="3" />
  <group id="14" value="1" />
  </UnifacLLE>
<Asog name="ASOG">
  <group id="1" value="1" />
  <group id="2" value="3" />
  <group id="15" value="1" />
  </Asog>
<GCmethod name="PPR78">
  <group id="1" value="1" />
  <group id="2" value="3" />
  <group id="41" value="1" />
  </GCmethod>
<Umr name="UMR">
  <group id="1" value="1" />
  <group id="2" value="3" />
  <group id="15" value="1" />
  </Umr>
<ModifiedUnifac name="Modified UNIFAC">
  <group id="1" value="1" />
  <group id="2" value="3" />
  <group id="14" value="1" />
  </ModifiedUnifac>
<CAS name="CAS number" value="71-36-3" />
<Smiles name="SMILES" value="CCCCO" />
</compound>

