<compound>
<LibraryIndex name="Index" value="204" />
<CompoundID name="Name" value="1-butene" />
<StructureFormula name="Structure" value="CH2CHCH2CH3" />
<Family name="Family" value="9" />
<CriticalTemperature name="Critical temperature" units="K" value="419.5" />
<CriticalPressure name="Critical pressure" units="Pa" value="4020000" />
<CriticalVolume name="Critical volume" units="m3/kmol" value="0.2408" />
<CriticalCompressibility name="Critical compressibility factor" units="_" value="0.278" />
<NormalBoilingPointTemperature name="Normal boiling point" units="K" value="266.92" />
<NormalMeltingPointTemperature name="Melting point" units="K" value="87.8" />
<TriplePointTemperature name="Triple point temperature" units="K" value="87.8" />
<TriplePointPressure name="Triple point pressure" units="Pa" value="0.000000694" />
<MolecularWeight name="Molecular weight" units="kg/kmol" value="56.10632" />
<LiquidVolumeAtNormalBoilingPoint name="Liquid molar volume at normal boiling point" units="m3/kmol" value="0.09534" />
<AcentricityFactor name="Acentric factor" units="_" value="0.194" />
<RadiusOfGyration name="Radius of gyration" units="m" value="2.762E-10" />
<SolubilityParameter name="Solubility parameter" units="J0.5/m1.5" value="13630" />
<DipoleMoment name="Dipole moment" units="Coulomb.m" value="1.13E-30" />
<VanDerWaalsVolume name="Van der Waals volume" units="m3/kmol" value="0.04431" />
<VanDerWaalsArea name="Van der Waals area" units="m2/kmol" value="6.41E+08" />
<HeatOfFormation name="IG heat of formation" units="J/kmol" value="-500000" />
<GibbsEnergyOfFormation name="IG Gibbs energy of formation" units="J/kmol" value="7.041E+07" />
<AbsEntropy name="IG absolute entropy" units="J/kmol/K" value="307400" />
<HeatOfFusionAtMeltingPoint name="Heat of fusion at melting point" units="J/kmol" value="3848000" />
<MatthiasCopemanC1 name="Mathias-Copeman C1" units="_" value="0.76818" />
<HeatOfCombustion name="Standard net heat of combustion LHV" units="J/kmol" value="-2.5408E+09" />
<SolidDensity name="Solid density" units="kmol/m3">
  <eqno value="2" />
  <A value="18.071" />
  <B value="-0.022407" />
  <Tmin units="K" value="35.12" />
  <Tmax units="K" value="87.8" />
  </SolidDensity>
<LiquidDensity name="Liquid density" units="kmol/m3">
  <eqno value="105" />
  <A value="0.98" />
  <B value="0.25169" />
  <C value="419.54" />
  <D value="0.26645" />
  <Tmin units="K" value="87.8" />
  <Tmax units="K" value="419.53" />
  </LiquidDensity>
<VaporPressure name="Vapour pressure" units="Pa">
  <eqno value="101" />
  <A value="41.66588" />
  <B value="-3605.004" />
  <C value="-2.983562" />
  <D value="6.665773E-07" />
  <E value="2" />
  <Tmin units="K" value="87.8" />
  <Tmax units="K" value="419.5" />
  </VaporPressure>
<HeatOfVaporization name="Heat of vaporization" units="J/kmol">
  <eqno value="106" />
  <A value="3.5338E+07" />
  <B value="0.68186" />
  <C value="-0.28099" />
  <D value="-0.25369" />
  <E value="0.26017" />
  <Tmin units="K" value="87.8" />
  <Tmax units="K" value="419.5" />
  </HeatOfVaporization>
<SolidHeatCapacityCp name="Solid heat capacity" units="J/kmol/K">
  <eqno value="100" />
  <A value="1585.7" />
  <B value="-577.54" />
  <C value="64.19" />
  <D value="-1.0389" />
  <E value="0.0053848" />
  <Tmin units="K" value="6" />
  <Tmax units="K" value="87.82" />
  </SolidHeatCapacityCp>
<LiquidHeatCapacityCp name="Liquid heat capacity" units="J/kmol/K">
  <eqno value="16" />
  <A value="100270" />
  <B value="86.345" />
  <C value="7.7333" />
  <D value="0.00096546" />
  <E value="0.000020281" />
  <Tmin units="K" value="81.29" />
  <Tmax units="K" value="380" />
  </LiquidHeatCapacityCp>
<IdealGasHeatCapacityCp name="Ideal gas heat capacity" units="J/kmol/K">
  <eqno value="16" />
  <A value="53529" />
  <B value="-619.26" />
  <C value="12.431" />
  <D value="0.000096632" />
  <E value="-3.9013E-08" />
  <Tmin units="K" value="200" />
  <Tmax units="K" value="1500" />
  </IdealGasHeatCapacityCp>
<SecondVirialCoefficient name="Second virial coefficient" units="m3/kmol">
  <eqno value="104" />
  <A value="0.15917" />
  <B value="-163.92" />
  <C value="-3.9976" />
  <D value="-1573.8" />
  <E value="2763.7" />
  <Tmin units="K" value="209.75" />
  <Tmax units="K" value="1500" />
  </SecondVirialCoefficient>
<LiquidViscosity name="Liquid viscosity" units="Pa.s">
  <eqno value="101" />
  <A value="-10.764" />
  <B value="591.51" />
  <C value="-0.0017307" />
  <D value="2.5723E-08" />
  <E value="2" />
  <Tmin units="K" value="87.8" />
  <Tmax units="K" value="335.6" />
  </LiquidViscosity>
<VaporViscosity name="Vapour viscosity" units="Pa.s">
  <eqno value="102" />
  <A value="7.0347E-07" />
  <B value="0.54535" />
  <C value="308.83" />
  <D value="-232.73" />
  <Tmin units="K" value="87.8" />
  <Tmax units="K" value="1000" />
  </VaporViscosity>
<LiquidThermalConductivity name="Liquid thermal conductivity" units="W/m/K">
  <eqno value="16" />
  <A value="0.071267" />
  <B value="99.471" />
  <C value="-4.2011" />
  <D value="0.014325" />
  <E value="-0.000041157" />
  <Tmin units="K" value="87.8" />
  <Tmax units="K" value="363.15" />
  </LiquidThermalConductivity>
<VaporThermalConductivity name="Vapour thermal conductivity" units="W/m/K">
  <eqno value="102" />
  <A value="0.000092115" />
  <B value="1.1181" />
  <C value="717.19" />
  <D value="13037" />
  <Tmin units="K" value="87.8" />
  <Tmax units="K" value="1000" />
  </VaporThermalConductivity>
<SurfaceTension name="Surface tension" units="N/m">
  <eqno value="16" />
  <A value="-0.011829" />
  <B value="10.929" />
  <C value="-2.9412" />
  <D value="-0.00056522" />
  <E value="-0.0000074409" />
  <Tmin units="K" value="87.8" />
  <Tmax units="K" value="419.5" />
  </SurfaceTension>
<RPPHeatCapacityCp name="Ideal gas heat capacity (RPP)" units="J/kmol/K">
  <eqno value="100" />
  <A value="36492" />
  <B value="66.383" />
  <C value="0.51076" />
  <D value="-0.00068154" />
  <E value="2.6315E-07" />
  <Tmin units="K" value="50" />
  <Tmax units="K" value="1000" />
  </RPPHeatCapacityCp>
<AntoineVaporPressure name="Antoine" units="Pa">
  <eqno value="10" />
  <A value="21.09" />
  <B value="2368.5" />
  <C value="-19.25" />
  <Tmin units="K" value="254.15" />
  <Tmax units="K" value="373.15" />
  </AntoineVaporPressure>
<LiquidViscosityRPS name="Liquid viscosity (RPS)" units="Pa.s">
  <eqno value="13" />
  <A value="-0.33753" />
  <B value="-0.055494" />
  <C value="0.000090567" />
  <Tmin units="K" value="87.8" />
  <Tmax units="K" value="335.6" />
  </LiquidViscosityRPS>
<COSTALDVolume name="COSTLD characteristic volume (V*)" units="m3/kmol" value="0.2377" />
<DiameterLJ name="Lennard Jones diameter" units="m" value="5.394403E-10" />
<EnergyLJ name="Lennard Jones energy" units="K" value="273.0275" />
<RacketParameter name="Rackett parameter" units="_" value="0.2736" />
<FullerVolume name="Fuller et al. diffusion volume" units="_" value="82.08" />
<MatthiasCopemanC2 name="Mathias-Copeman C2" units="_" value="-0.24598" />
<Parachor name="Parachor" units="kg0.25.m3/s0.5/kmol" value="0.0321" />
<SpecificGravity name="Specific gravity" units="_" value="0.593789" />
<Charge name="Charge" units="_" value="0" />
<CostaldAcentricFactor name="SRK acentric factor" units="_" value="0.1921" />
<WilsonVolume name="Wilson volume" units="m3/kmol" value="0.0896329" />
<UniquacR name="UNIQUAC r" units="_" value="2.92" />
<UniquacQ name="UNIQUAC q" units="_" value="2.56" />
<ApiSrkS2 name="API-SRK s2" units="_" value="0.001178" />
<MatthiasCopemanC3 name="Mathias-Copeman C3" units="_" value="0.98463" />
<ChaoSeaderAcentricFactor name="Chao-Seader acentric factor" units="_" value="0.2085" />
<ChaoSeaderSolubilityParameter name="Chao-Seader solubility parameter" units="J0.5/m1.5" value="13827.58" />
<ChaoSeaderLiquidVolume name="Chao-Seader liquid volume" units="m3/kmol" value="0.0953" />
<UnifacVLE name="UNIFAC">
  <group id="1" value="1" />
  <group id="2" value="1" />
  <group id="5" value="1" />
  </UnifacVLE>
<UnifacLLE name="UNIFAC-LLE">
  <group id="1" value="1" />
  <group id="2" value="1" />
  <group id="5" value="1" />
  </UnifacLLE>
<Asog name="ASOG">
  <group id="1" value="1" />
  <group id="2" value="1" />
  <group id="5" value="1" />
  </Asog>
<GCmethod name="PPR78">
  <group id="1" value="1" />
  <group id="2" value="2" />
  <group id="18" value="1" />
  </GCmethod>
<Umr name="UMR">
  <group id="1" value="1" />
  <group id="2" value="1" />
  <group id="5" value="1" />
  </Umr>
<ModifiedUnifac name="Modified UNIFAC">
  <group id="1" value="1" />
  <group id="2" value="1" />
  <group id="5" value="1" />
  </ModifiedUnifac>
<CAS name="CAS number" value="106-98-9" />
<Smiles name="SMILES" value="C=CCC" />
</compound>

