<compound>
<LibraryIndex name="Index" value="260" />
<CompoundID name="Name" value="1-decene" />
<StructureFormula name="Structure" value="CH3(CH2)7CHCH2" />
<Family name="Family" value="9" />
<CriticalTemperature name="Critical temperature" units="K" value="616.6" />
<CriticalPressure name="Critical pressure" units="Pa" value="2223000" />
<CriticalVolume name="Critical volume" units="m3/kmol" value="0.584" />
<CriticalCompressibility name="Critical compressibility factor" units="_" value="0.253" />
<NormalBoilingPointTemperature name="Normal boiling point" units="K" value="443.75" />
<NormalMeltingPointTemperature name="Melting point" units="K" value="206.9" />
<TriplePointTemperature name="Triple point temperature" units="K" value="206.9" />
<TriplePointPressure name="Triple point pressure" units="Pa" value="0.0259" />
<MolecularWeight name="Molecular weight" units="kg/kmol" value="140.2658" />
<LiquidVolumeAtNormalBoilingPoint name="Liquid molar volume at normal boiling point" units="m3/kmol" value="0.19" />
<AcentricityFactor name="Acentric factor" units="_" value="0.480456" />
<RadiusOfGyration name="Radius of gyration" units="m" value="5.227E-10" />
<SolubilityParameter name="Solubility parameter" units="J0.5/m1.5" value="15600" />
<DipoleMoment name="Dipole moment" units="Coulomb.m" value="1.4E-30" />
<VanDerWaalsVolume name="Van der Waals volume" units="m3/kmol" value="0.10569" />
<VanDerWaalsArea name="Van der Waals area" units="m2/kmol" value="1.451E+09" />
<HeatOfFormation name="IG heat of formation" units="J/kmol" value="-1.221E+08" />
<GibbsEnergyOfFormation name="IG Gibbs energy of formation" units="J/kmol" value="1.227E+08" />
<AbsEntropy name="IG absolute entropy" units="J/kmol/K" value="543300" />
<HeatOfFusionAtMeltingPoint name="Heat of fusion at melting point" units="J/kmol" value="1.381E+07" />
<MatthiasCopemanC1 name="Mathias-Copeman C1" units="_" value="1.159481" />
<HeatOfCombustion name="Standard net heat of combustion LHV" units="J/kmol" value="-6.1809E+09" />
<SolidDensity name="Solid density" units="kmol/m3">
  <eqno value="100" />
  <A value="7.3379" />
  <B value="-0.0044332" />
  <C value="0" />
  <D value="0" />
  <E value="0" />
  <Tmin units="K" value="82.76" />
  <Tmax units="K" value="206.9" />
  </SolidDensity>
<LiquidDensity name="Liquid density" units="kmol/m3">
  <eqno value="105" />
  <A value="0.43981" />
  <B value="0.25661" />
  <C value="616.6" />
  <D value="0.29148" />
  <Tmin units="K" value="206.89" />
  <Tmax units="K" value="616.6" />
  </LiquidDensity>
<VaporPressure name="Vapour pressure" units="Pa">
  <eqno value="101" />
  <A value="68.401" />
  <B value="-7776.9" />
  <C value="-6.4637" />
  <D value="6.375E-18" />
  <E value="6" />
  <Tmin units="K" value="206.89" />
  <Tmax units="K" value="616.6" />
  </VaporPressure>
<HeatOfVaporization name="Heat of vaporization" units="J/kmol">
  <eqno value="106" />
  <A value="6.6985E+07" />
  <B value="0.76944" />
  <C value="-0.79975" />
  <D value="0.42379" />
  <E value="0.001" />
  <Tmin units="K" value="206.89" />
  <Tmax units="K" value="616.6" />
  </HeatOfVaporization>
<SolidHeatCapacityCp name="Solid heat capacity" units="J/kmol/K">
  <eqno value="100" />
  <A value="-470580" />
  <B value="3691.8" />
  <C value="0" />
  <D value="0" />
  <E value="0" />
  <Tmin units="K" value="198.3" />
  <Tmax units="K" value="206.89" />
  </SolidHeatCapacityCp>
<LiquidHeatCapacityCp name="Liquid heat capacity" units="J/kmol/K">
  <eqno value="100" />
  <A value="417440" />
  <B value="-1616.5" />
  <C value="5.3948" />
  <D value="-0.004348" />
  <E value="0" />
  <Tmin units="K" value="206.89" />
  <Tmax units="K" value="494" />
  </LiquidHeatCapacityCp>
<IdealGasHeatCapacityCp name="Ideal gas heat capacity" units="J/kmol/K">
  <eqno value="16" />
  <A value="133732.1" />
  <B value="-592.8401" />
  <C value="13.39755" />
  <D value="0.0000430271" />
  <E value="-2.367424E-08" />
  <Tmin units="K" value="206.9" />
  <Tmax units="K" value="1500" />
  </IdealGasHeatCapacityCp>
<SecondVirialCoefficient name="Second virial coefficient" units="m3/kmol">
  <eqno value="104" />
  <A value="0.33527" />
  <B value="-414.96" />
  <C value="-103.13" />
  <D value="-32990" />
  <E value="50324" />
  <Tmin units="K" value="308.3" />
  <Tmax units="K" value="1500" />
  </SecondVirialCoefficient>
<LiquidViscosity name="Liquid viscosity" units="Pa.s">
  <eqno value="101" />
  <A value="-15.868" />
  <B value="1434.8" />
  <C value="0.68071" />
  <D value="0" />
  <E value="0" />
  <Tmin units="K" value="206.89" />
  <Tmax units="K" value="443.75" />
  </LiquidViscosity>
<VaporViscosity name="Vapour viscosity" units="Pa.s">
  <eqno value="102" />
  <A value="6.1192E-08" />
  <B value="0.82546" />
  <C value="77.434" />
  <D value="0" />
  <Tmin units="K" value="206.89" />
  <Tmax units="K" value="1000" />
  </VaporViscosity>
<LiquidThermalConductivity name="Liquid thermal conductivity" units="W/m/K">
  <eqno value="100" />
  <A value="0.20237" />
  <B value="-0.00024187" />
  <C value="0" />
  <D value="0" />
  <E value="0" />
  <Tmin units="K" value="206.89" />
  <Tmax units="K" value="443.75" />
  </LiquidThermalConductivity>
<VaporThermalConductivity name="Vapour thermal conductivity" units="W/m/K">
  <eqno value="102" />
  <A value="0.000027232" />
  <B value="1.257" />
  <C value="751.7" />
  <D value="0" />
  <Tmin units="K" value="443.75" />
  <Tmax units="K" value="1000" />
  </VaporThermalConductivity>
<SurfaceTension name="Surface tension" units="N/m">
  <eqno value="106" />
  <A value="0.054378" />
  <B value="1.2593" />
  <C value="0" />
  <D value="0" />
  <E value="0.0000001" />
  <Tmin units="K" value="206.89" />
  <Tmax units="K" value="616.6" />
  </SurfaceTension>
<AntoineVaporPressure name="Antoine" units="Pa">
  <eqno value="10" />
  <A value="23.53346" />
  <B value="5600" />
  <C value="20" />
  <Tmin units="K" value="300" />
  <Tmax units="K" value="600" />
  </AntoineVaporPressure>
<FullerVolume name="Fuller et al. diffusion volume" units="_" value="205.2" />
<Parachor name="Parachor" units="kg0.25.m3/s0.5/kmol" value="0.0743834" />
<SpecificGravity name="Specific gravity" units="_" value="0.746082" />
<Charge name="Charge" units="_" value="0" />
<CostaldAcentricFactor name="SRK acentric factor" units="_" value="0.480456" />
<WilsonVolume name="Wilson volume" units="m3/kmol" value="0.19" />
<UniquacR name="UNIQUAC r" units="_" value="6.967299" />
<UniquacQ name="UNIQUAC q" units="_" value="5.804" />
<ChaoSeaderAcentricFactor name="Chao-Seader acentric factor" units="_" value="0.480456" />
<ChaoSeaderSolubilityParameter name="Chao-Seader solubility parameter" units="J0.5/m1.5" value="15600" />
<ChaoSeaderLiquidVolume name="Chao-Seader liquid volume" units="m3/kmol" value="0.19" />
<UnifacVLE name="UNIFAC">
  <group id="1" value="1" />
  <group id="2" value="7" />
  <group id="5" value="1" />
  </UnifacVLE>
<UnifacLLE name="UNIFAC-LLE">
  <group id="1" value="1" />
  <group id="2" value="7" />
  <group id="5" value="1" />
  </UnifacLLE>
<Asog name="ASOG">
  <group id="1" value="1" />
  <group id="2" value="7" />
  <group id="5" value="1" />
  </Asog>
<GCmethod name="PPR78">
  <group id="1" value="1" />
  <group id="2" value="8" />
  <group id="18" value="1" />
  </GCmethod>
<Umr name="UMR">
  <group id="1" value="1" />
  <group id="2" value="7" />
  <group id="5" value="1" />
  </Umr>
<ModifiedUnifac name="Modified UNIFAC">
  <group id="1" value="1" />
  <group id="2" value="7" />
  <group id="5" value="1" />
  </ModifiedUnifac>
<CAS name="CAS number" value="872-05-9" />
<Smiles name="SMILES" value="C=CCCCCCCCC" />
</compound>

