<compound>
<LibraryIndex name="Index" value="1148" />
<CompoundID name="Name" value="1-eicosanol" />
<StructureFormula name="Structure" value="CH3(CH2)19OH" />
<Family name="Family" value="27" />
<CriticalTemperature name="Critical temperature" units="K" value="808.23" />
<CriticalPressure name="Critical pressure" units="Pa" value="1070000" />
<CriticalVolume name="Critical volume" units="m3/kmol" value="1.156" />
<CriticalCompressibility name="Critical compressibility factor" units="_" value="0.238" />
<NormalBoilingPointTemperature name="Normal boiling point" units="K" value="646" />
<NormalMeltingPointTemperature name="Melting point" units="K" value="338.15" />
<TriplePointTemperature name="Triple point temperature" units="K" value="338.15" />
<TriplePointPressure name="Triple point pressure" units="Pa" value="0.0125" />
<MolecularWeight name="Molecular weight" units="kg/kmol" value="298.547" />
<LiquidVolumeAtNormalBoilingPoint name="Liquid molar volume at normal boiling point" units="m3/kmol" value="0.3682" />
<AcentricityFactor name="Acentric factor" units="_" value="0.878895" />
<RadiusOfGyration name="Radius of gyration" units="m" value="8.501E-10" />
<SolubilityParameter name="Solubility parameter" units="J0.5/m1.5" value="17380" />
<DipoleMoment name="Dipole moment" units="Coulomb.m" value="6.1E-30" />
<VanDerWaalsVolume name="Van der Waals volume" units="m3/kmol" value="0.2161" />
<VanDerWaalsArea name="Van der Waals area" units="m2/kmol" value="2.923E+09" />
<HeatOfFormation name="IG heat of formation" units="J/kmol" value="-6.052E+08" />
<GibbsEnergyOfFormation name="IG Gibbs energy of formation" units="J/kmol" value="-1.594E+07" />
<AbsEntropy name="IG absolute entropy" units="J/kmol/K" value="989500" />
<HeatOfFusionAtMeltingPoint name="Heat of fusion at melting point" units="J/kmol" value="9.92E+07" />
<HeatOfCombustion name="Standard net heat of combustion LHV" units="J/kmol" value="-1.214E+10" />
<SolidDensity name="Solid density" units="kmol/m3">
  <eqno value="100" />
  <A value="3.476" />
  <B value="-0.0012834" />
  <C value="0" />
  <D value="0" />
  <E value="0" />
  <Tmin units="K" value="135.42" />
  <Tmax units="K" value="338.55" />
  </SolidDensity>
<LiquidDensity name="Liquid density" units="kmol/m3">
  <eqno value="105" />
  <A value="0.15382" />
  <B value="0.21227" />
  <C value="807.7" />
  <D value="0.294" />
  <Tmin units="K" value="338.55" />
  <Tmax units="K" value="807.7" />
  </LiquidDensity>
<VaporPressure name="Vapour pressure" units="Pa">
  <eqno value="101" />
  <A value="186.67" />
  <B value="-21260" />
  <C value="-22.021" />
  <D value="3.6754E-18" />
  <E value="6" />
  <Tmin units="K" value="338.55" />
  <Tmax units="K" value="807.7" />
  </VaporPressure>
<HeatOfVaporization name="Heat of vaporization" units="J/kmol">
  <eqno value="106" />
  <A value="1.1453E+08" />
  <B value="-1.1792" />
  <C value="3.7922" />
  <D value="-2.2893" />
  <E value="0" />
  <Tmin units="K" value="338.55" />
  <Tmax units="K" value="807.7" />
  </HeatOfVaporization>
<SolidHeatCapacityCp name="Solid heat capacity" units="J/kmol/K">
  <eqno value="100" />
  <A value="-43251" />
  <B value="3655.9" />
  <C value="-12.333" />
  <D value="0.014371" />
  <E value="0.000026525" />
  <Tmin units="K" value="50" />
  <Tmax units="K" value="285" />
  </SolidHeatCapacityCp>
<LiquidHeatCapacityCp name="Liquid heat capacity" units="J/kmol/K">
  <eqno value="100" />
  <A value="-1162300" />
  <B value="12330" />
  <C value="-25.691" />
  <D value="0.018397" />
  <E value="0" />
  <Tmin units="K" value="338.55" />
  <Tmax units="K" value="645.5" />
  </LiquidHeatCapacityCp>
<IdealGasHeatCapacityCp name="Ideal gas heat capacity" units="J/kmol/K">
  <eqno value="107" />
  <A value="319600" />
  <B value="999000" />
  <C value="1380.1" />
  <D value="638000" />
  <E value="666" />
  <Tmin units="K" value="298.15" />
  <Tmax units="K" value="1500" />
  </IdealGasHeatCapacityCp>
<SecondVirialCoefficient name="Second virial coefficient" units="m3/kmol">
  <eqno value="104" />
  <A value="0.9841" />
  <B value="-568.85" />
  <C value="-9.8259E+08" />
  <D value="-2.332E+22" />
  <E value="7.0348E+23" />
  <Tmin units="K" value="404.5" />
  <Tmax units="K" value="1500" />
  </SecondVirialCoefficient>
<LiquidViscosity name="Liquid viscosity" units="Pa.s">
  <eqno value="101" />
  <A value="-109.26" />
  <B value="9002.5" />
  <C value="13.426" />
  <D value="0" />
  <E value="0" />
  <Tmin units="K" value="338.55" />
  <Tmax units="K" value="645.5" />
  </LiquidViscosity>
<VaporViscosity name="Vapour viscosity" units="Pa.s">
  <eqno value="102" />
  <A value="1.8961E-08" />
  <B value="0.93553" />
  <C value="0" />
  <D value="0" />
  <Tmin units="K" value="338.55" />
  <Tmax units="K" value="1000" />
  </VaporViscosity>
<LiquidThermalConductivity name="Liquid thermal conductivity" units="W/m/K">
  <eqno value="100" />
  <A value="0.19388" />
  <B value="-0.00017828" />
  <C value="0" />
  <D value="0" />
  <E value="0" />
  <Tmin units="K" value="338.55" />
  <Tmax units="K" value="645.5" />
  </LiquidThermalConductivity>
<VaporThermalConductivity name="Vapour thermal conductivity" units="W/m/K">
  <eqno value="102" />
  <A value="-0.67648" />
  <B value="0.048685" />
  <C value="-2960.2" />
  <D value="-1.2173E+07" />
  <Tmin units="K" value="645.5" />
  <Tmax units="K" value="1000" />
  </VaporThermalConductivity>
<SurfaceTension name="Surface tension" units="N/m">
  <eqno value="106" />
  <A value="0.06083" />
  <B value="1.4095" />
  <C value="0" />
  <D value="0" />
  <E value="0" />
  <Tmin units="K" value="338.55" />
  <Tmax units="K" value="807.7" />
  </SurfaceTension>
<AntoineVaporPressure name="Antoine" units="Pa">
  <eqno value="10" />
  <A value="22" />
  <B value="5300" />
  <C value="-140" />
  <Tmin units="K" value="339" />
  <Tmax units="K" value="807" />
  </AntoineVaporPressure>
<FullerVolume name="Fuller et al. diffusion volume" units="_" value="421.13" />
<Parachor name="Parachor" units="kg0.25.m3/s0.5/kmol" value="0.150318" />
<SpecificGravity name="Specific gravity" units="_" value="0.841" />
<Charge name="Charge" units="_" value="0" />
<CostaldAcentricFactor name="SRK acentric factor" units="_" value="0.878895" />
<WilsonVolume name="Wilson volume" units="m3/kmol" value="0.3682" />
<UniquacR name="UNIQUAC r" units="_" value="14.7147" />
<UniquacQ name="UNIQUAC q" units="_" value="12.308" />
<ChaoSeaderAcentricFactor name="Chao-Seader acentric factor" units="_" value="0.878895" />
<ChaoSeaderSolubilityParameter name="Chao-Seader solubility parameter" units="J0.5/m1.5" value="17380" />
<ChaoSeaderLiquidVolume name="Chao-Seader liquid volume" units="m3/kmol" value="0.3682" />
<UnifacVLE name="UNIFAC">
  <group id="1" value="1" />
  <group id="2" value="19" />
  <group id="15" value="1" />
  </UnifacVLE>
<UnifacLLE name="UNIFAC-LLE">
  <group id="1" value="1" />
  <group id="2" value="19" />
  <group id="14" value="1" />
  </UnifacLLE>
<Asog name="ASOG">
  <group id="1" value="1" />
  <group id="2" value="19" />
  <group id="15" value="1" />
  </Asog>
<Umr name="UMR">
  <group id="1" value="1" />
  <group id="2" value="19" />
  <group id="15" value="1" />
  </Umr>
<ModifiedUnifac name="Modified UNIFAC">
  <group id="1" value="1" />
  <group id="2" value="19" />
  <group id="14" value="1" />
  </ModifiedUnifac>
<CAS name="CAS number" value="629-96-9" />
<Smiles name="SMILES" value="CCCCCCCCCCCCCCCCCCCCO" />
</compound>

