<compound>
<LibraryIndex name="Index" value="1114" />
<CompoundID name="Name" value="1-hexanol" />
<StructureFormula name="Structure" value="CH3(CH2)5OH" />
<Family name="Family" value="27" />
<CriticalTemperature name="Critical temperature" units="K" value="611.4" />
<CriticalPressure name="Critical pressure" units="Pa" value="3510000" />
<CriticalVolume name="Critical volume" units="m3/kmol" value="0.381" />
<CriticalCompressibility name="Critical compressibility factor" units="_" value="0.263" />
<NormalBoilingPointTemperature name="Normal boiling point" units="K" value="430.44" />
<NormalMeltingPointTemperature name="Melting point" units="K" value="228.55" />
<TriplePointTemperature name="Triple point temperature" units="K" value="228.55" />
<TriplePointPressure name="Triple point pressure" units="Pa" value="0.0295499" />
<MolecularWeight name="Molecular weight" units="kg/kmol" value="102.1748" />
<LiquidVolumeAtNormalBoilingPoint name="Liquid molar volume at normal boiling point" units="m3/kmol" value="0.12519" />
<AcentricityFactor name="Acentric factor" units="_" value="0.58" />
<RadiusOfGyration name="Radius of gyration" units="m" value="4.144E-10" />
<SolubilityParameter name="Solubility parameter" units="J0.5/m1.5" value="21830" />
<DipoleMoment name="Dipole moment" units="Coulomb.m" value="5.5E-30" />
<VanDerWaalsVolume name="Van der Waals volume" units="m3/kmol" value="0.0728599" />
<VanDerWaalsArea name="Van der Waals area" units="m2/kmol" value="1.033E+09" />
<HeatOfFormation name="IG heat of formation" units="J/kmol" value="-3.18E+08" />
<GibbsEnergyOfFormation name="IG Gibbs energy of formation" units="J/kmol" value="-1.344E+08" />
<AbsEntropy name="IG absolute entropy" units="J/kmol/K" value="440000" />
<HeatOfFusionAtMeltingPoint name="Heat of fusion at melting point" units="J/kmol" value="1.54E+07" />
<MatthiasCopemanC1 name="Mathias-Copeman C1" units="_" value="1.34" />
<HeatOfCombustion name="Standard net heat of combustion LHV" units="J/kmol" value="-3.67439E+09" />
<SolidDensity name="Solid density" units="kmol/m3">
  <eqno value="2" />
  <A value="9.939" />
  <B value="-0.00020832" />
  <C value="0" />
  <D value="0" />
  <E value="0" />
  <Tmin units="K" value="228.55" />
  <Tmax units="K" value="238.05" />
  </SolidDensity>
<LiquidDensity name="Liquid density" units="kmol/m3">
  <eqno value="105" />
  <A value="0.12172" />
  <B value="0.11263" />
  <C value="611.4" />
  <D value="0.13194" />
  <Tmin units="K" value="228.55" />
  <Tmax units="K" value="610.3" />
  </LiquidDensity>
<VaporPressure name="Vapour pressure" units="Pa">
  <eqno value="101" />
  <A value="140.4065" />
  <B value="-11996.05" />
  <C value="-16.8497" />
  <D value="6.25688E-06" />
  <E value="2" />
  <Tmin units="K" value="228.55" />
  <Tmax units="K" value="610.3" />
  </VaporPressure>
<HeatOfVaporization name="Heat of vaporization" units="J/kmol">
  <eqno value="106" />
  <A value="9.9912E+07" />
  <B value="1.0345" />
  <C value="-0.71214" />
  <D value="0.038869" />
  <E value="0.22103" />
  <Tmin units="K" value="228.55" />
  <Tmax units="K" value="610.3" />
  </HeatOfVaporization>
<SolidHeatCapacityCp name="Solid heat capacity" units="J/kmol/K">
  <eqno value="100" />
  <A value="-19775" />
  <B value="1482.2" />
  <C value="-5.3111" />
  <D value="0.0052486" />
  <E value="0.000017593" />
  <Tmin units="K" value="15" />
  <Tmax units="K" value="200" />
  </SolidHeatCapacityCp>
<LiquidHeatCapacityCp name="Liquid heat capacity" units="J/kmol/K">
  <eqno value="16" />
  <A value="-13352" />
  <B value="695.57" />
  <C value="4.4864" />
  <D value="0.026504" />
  <E value="-0.000025444" />
  <Tmin units="K" value="228.55" />
  <Tmax units="K" value="460" />
  </LiquidHeatCapacityCp>
<IdealGasHeatCapacityCp name="Ideal gas heat capacity" units="J/kmol/K">
  <eqno value="16" />
  <A value="93733" />
  <B value="-618.92" />
  <C value="13.098" />
  <D value="-0.000028541" />
  <E value="-8.6478E-09" />
  <Tmin units="K" value="200" />
  <Tmax units="K" value="1500" />
  </IdealGasHeatCapacityCp>
<SecondVirialCoefficient name="Second virial coefficient" units="m3/kmol">
  <eqno value="104" />
  <A value="0.28103" />
  <B value="-313.61" />
  <C value="-50.106" />
  <D value="92563" />
  <E value="-384560" />
  <Tmin units="K" value="305.15" />
  <Tmax units="K" value="1955.7" />
  </SecondVirialCoefficient>
<LiquidViscosity name="Liquid viscosity" units="Pa.s">
  <eqno value="101" />
  <A value="-78.019" />
  <B value="5186.5" />
  <C value="9.8395" />
  <D value="-0.0000094042" />
  <E value="2" />
  <Tmin units="K" value="243.15" />
  <Tmax units="K" value="611" />
  </LiquidViscosity>
<VaporViscosity name="Vapour viscosity" units="Pa.s">
  <eqno value="102" />
  <A value="2.3121E-07" />
  <B value="0.66402" />
  <C value="127.06" />
  <D value="17987" />
  <Tmin units="K" value="228.55" />
  <Tmax units="K" value="1000" />
  </VaporViscosity>
<LiquidThermalConductivity name="Liquid thermal conductivity" units="W/m/K">
  <eqno value="16" />
  <A value="0.09203" />
  <B value="1297.6" />
  <C value="-15.712" />
  <D value="0.045447" />
  <E value="-0.000056017" />
  <Tmin units="K" value="228.55" />
  <Tmax units="K" value="575" />
  </LiquidThermalConductivity>
<VaporThermalConductivity name="Vapour thermal conductivity" units="W/m/K">
  <eqno value="102" />
  <A value="-2143900" />
  <B value="-0.092957" />
  <C value="1.682E+08" />
  <D value="-1.0339E+13" />
  <Tmin units="K" value="228.55" />
  <Tmax units="K" value="1000" />
  </VaporThermalConductivity>
<SurfaceTension name="Surface tension" units="N/m">
  <eqno value="16" />
  <A value="-0.035783" />
  <B value="66.822" />
  <C value="-3.0656" />
  <D value="0.00092964" />
  <E value="-0.000002544" />
  <Tmin units="K" value="228.55" />
  <Tmax units="K" value="610.3" />
  </SurfaceTension>
<RPPHeatCapacityCp name="Ideal gas heat capacity (RPP)" units="J/kmol/K">
  <eqno value="100" />
  <A value="56405" />
  <B value="141.84" />
  <C value="0.99233" />
  <D value="-0.0014257" />
  <E value="5.8077E-07" />
  <Tmin units="K" value="200" />
  <Tmax units="K" value="1000" />
  </RPPHeatCapacityCp>
<RelativeStaticPermittivity name="Relative static permittivity" units="_">
  <eqno value="120" />
  <A value="-12.45024" />
  <B value="-6650" />
  <C value="-39.9" />
  <Tmin units="K" value="279.15" />
  <Tmax units="K" value="449.15" />
  </RelativeStaticPermittivity>
<AntoineVaporPressure name="Antoine" units="Pa">
  <eqno value="10" />
  <A value="20.645" />
  <B value="2705.5" />
  <C value="-133.98" />
  <Tmin units="K" value="369.19" />
  <Tmax units="K" value="550.02" />
  </AntoineVaporPressure>
<LiquidViscosityRPS name="Liquid viscosity (RPS)" units="Pa.s">
  <eqno value="12" />
  <A value="1.3202" />
  <B value="-0.022361" />
  <Tmin units="K" value="243.15" />
  <Tmax units="K" value="473.15" />
  </LiquidViscosityRPS>
<COSTALDVolume name="COSTLD characteristic volume (V*)" units="m3/kmol" value="0.393259" />
<DiameterLJ name="Lennard Jones diameter" units="m" value="6.718511E-10" />
<EnergyLJ name="Lennard Jones energy" units="K" value="325.8963" />
<RacketParameter name="Rackett parameter" units="_" value="0.263" />
<FullerVolume name="Fuller et al. diffusion volume" units="_" value="133.85" />
<MatthiasCopemanC2 name="Mathias-Copeman C2" units="_" value="0" />
<Parachor name="Parachor" units="kg0.25.m3/s0.5/kmol" value="0.0505795" />
<SpecificGravity name="Specific gravity" units="_" value="0.822536" />
<Charge name="Charge" units="_" value="0" />
<CostaldAcentricFactor name="SRK acentric factor" units="_" value="0.58" />
<WilsonVolume name="Wilson volume" units="m3/kmol" value="0.12519" />
<UniquacR name="UNIQUAC r" units="_" value="5.2731" />
<UniquacQ name="UNIQUAC q" units="_" value="4.748" />
<MatthiasCopemanC3 name="Mathias-Copeman C3" units="_" value="0" />
<ChaoSeaderAcentricFactor name="Chao-Seader acentric factor" units="_" value="0.58" />
<ChaoSeaderSolubilityParameter name="Chao-Seader solubility parameter" units="J0.5/m1.5" value="21830" />
<ChaoSeaderLiquidVolume name="Chao-Seader liquid volume" units="m3/kmol" value="0.12519" />
<UnifacVLE name="UNIFAC">
  <group id="1" value="1" />
  <group id="2" value="5" />
  <group id="15" value="1" />
  </UnifacVLE>
<UnifacLLE name="UNIFAC-LLE">
  <group id="1" value="1" />
  <group id="2" value="5" />
  <group id="14" value="1" />
  </UnifacLLE>
<Asog name="ASOG">
  <group id="1" value="1" />
  <group id="2" value="5" />
  <group id="15" value="1" />
  </Asog>
<GCmethod name="PPR78">
  <group id="1" value="1" />
  <group id="2" value="5" />
  <group id="41" value="1" />
  </GCmethod>
<Umr name="UMR">
  <group id="1" value="1" />
  <group id="2" value="5" />
  <group id="15" value="1" />
  </Umr>
<ModifiedUnifac name="Modified UNIFAC">
  <group id="1" value="1" />
  <group id="2" value="5" />
  <group id="14" value="1" />
  </ModifiedUnifac>
<CAS name="CAS number" value="111-27-3" />
<Smiles name="SMILES" value="CCCCCCO" />
</compound>

