<compound>
<LibraryIndex name="Index" value="1144" />
<CompoundID name="Name" value="1-hexadecanol" />
<StructureFormula name="Structure" value="CH3(CH2)15OH" />
<Family name="Family" value="27" />
<CriticalTemperature name="Critical temperature" units="K" value="768.6" />
<CriticalPressure name="Critical pressure" units="Pa" value="1468000" />
<CriticalVolume name="Critical volume" units="m3/kmol" value="1.08" />
<CriticalCompressibility name="Critical compressibility factor" units="_" value="0.248" />
<NormalBoilingPointTemperature name="Normal boiling point" units="K" value="598" />
<NormalMeltingPointTemperature name="Melting point" units="K" value="322.35" />
<TriplePointTemperature name="Triple point temperature" units="K" value="322.35" />
<TriplePointPressure name="Triple point pressure" units="Pa" value="0.054" />
<MolecularWeight name="Molecular weight" units="kg/kmol" value="242.441" />
<LiquidVolumeAtNormalBoilingPoint name="Liquid molar volume at normal boiling point" units="m3/kmol" value="0.2972" />
<AcentricityFactor name="Acentric factor" units="_" value="0.778775" />
<RadiusOfGyration name="Radius of gyration" units="m" value="7.31E-10" />
<SolubilityParameter name="Solubility parameter" units="J0.5/m1.5" value="18330" />
<DipoleMoment name="Dipole moment" units="Coulomb.m" value="5.57E-30" />
<VanDerWaalsVolume name="Van der Waals volume" units="m3/kmol" value="0.1752" />
<VanDerWaalsArea name="Van der Waals area" units="m2/kmol" value="2.383E+09" />
<HeatOfFormation name="IG heat of formation" units="J/kmol" value="-5.218E+08" />
<GibbsEnergyOfFormation name="IG Gibbs energy of formation" units="J/kmol" value="-4.964E+07" />
<AbsEntropy name="IG absolute entropy" units="J/kmol/K" value="832400" />
<HeatOfFusionAtMeltingPoint name="Heat of fusion at melting point" units="J/kmol" value="5.9E+07" />
<HeatOfCombustion name="Standard net heat of combustion LHV" units="J/kmol" value="-9.715E+09" />
<SolidDensity name="Solid density" units="kmol/m3">
  <eqno value="100" />
  <A value="4.0092" />
  <B value="0" />
  <C value="0" />
  <D value="0" />
  <E value="0" />
  <Tmin units="K" value="128.94" />
  <Tmax units="K" value="322.35" />
  </SolidDensity>
<LiquidDensity name="Liquid density" units="kmol/m3">
  <eqno value="105" />
  <A value="0.20634" />
  <B value="0.22285" />
  <C value="768.6" />
  <D value="0.27841" />
  <Tmin units="K" value="322.35" />
  <Tmax units="K" value="768.6" />
  </LiquidDensity>
<VaporPressure name="Vapour pressure" units="Pa">
  <eqno value="101" />
  <A value="186.19" />
  <B value="-19523" />
  <C value="-22.258" />
  <D value="6.3145E-18" />
  <E value="6" />
  <Tmin units="K" value="322.35" />
  <Tmax units="K" value="768.6" />
  </VaporPressure>
<HeatOfVaporization name="Heat of vaporization" units="J/kmol">
  <eqno value="106" />
  <A value="1.1064E+08" />
  <B value="-1.0625" />
  <C value="3.9479" />
  <D value="-2.5726" />
  <E value="0" />
  <Tmin units="K" value="322.35" />
  <Tmax units="K" value="768.6" />
  </HeatOfVaporization>
<SolidHeatCapacityCp name="Solid heat capacity" units="J/kmol/K">
  <eqno value="100" />
  <A value="-62142" />
  <B value="3679.2" />
  <C value="-16.023" />
  <D value="0.032049" />
  <E value="0" />
  <Tmin units="K" value="50" />
  <Tmax units="K" value="322.35" />
  </SolidHeatCapacityCp>
<LiquidHeatCapacityCp name="Liquid heat capacity" units="J/kmol/K">
  <eqno value="100" />
  <A value="-2230600" />
  <B value="18287" />
  <C value="-37.966" />
  <D value="0.026475" />
  <E value="0" />
  <Tmin units="K" value="322.35" />
  <Tmax units="K" value="598" />
  </LiquidHeatCapacityCp>
<IdealGasHeatCapacityCp name="Ideal gas heat capacity" units="J/kmol/K">
  <eqno value="107" />
  <A value="263100" />
  <B value="811370" />
  <C value="1502.2" />
  <D value="588800" />
  <E value="708" />
  <Tmin units="K" value="298.15" />
  <Tmax units="K" value="1500" />
  </IdealGasHeatCapacityCp>
<SecondVirialCoefficient name="Second virial coefficient" units="m3/kmol">
  <eqno value="104" />
  <A value="0.7438" />
  <B value="-501.74" />
  <C value="-5.7423E+08" />
  <D value="-1.1907E+22" />
  <E value="2.8996E+23" />
  <Tmin units="K" value="385" />
  <Tmax units="K" value="1500" />
  </SecondVirialCoefficient>
<LiquidViscosity name="Liquid viscosity" units="Pa.s">
  <eqno value="101" />
  <A value="-69.631" />
  <B value="6195.6" />
  <C value="7.9595" />
  <D value="0" />
  <E value="0" />
  <Tmin units="K" value="322.35" />
  <Tmax units="K" value="598" />
  </LiquidViscosity>
<VaporViscosity name="Vapour viscosity" units="Pa.s">
  <eqno value="102" />
  <A value="2.091E-08" />
  <B value="0.93551" />
  <C value="0" />
  <D value="0" />
  <Tmin units="K" value="322.35" />
  <Tmax units="K" value="1000" />
  </VaporViscosity>
<LiquidThermalConductivity name="Liquid thermal conductivity" units="W/m/K">
  <eqno value="100" />
  <A value="0.22081" />
  <B value="-0.00025" />
  <C value="0" />
  <D value="0" />
  <E value="0" />
  <Tmin units="K" value="322.35" />
  <Tmax units="K" value="598" />
  </LiquidThermalConductivity>
<VaporThermalConductivity name="Vapour thermal conductivity" units="W/m/K">
  <eqno value="102" />
  <A value="-1.494" />
  <B value="-0.0011687" />
  <C value="-2436.1" />
  <D value="-1.8154E+07" />
  <Tmin units="K" value="598" />
  <Tmax units="K" value="1000" />
  </VaporThermalConductivity>
<SurfaceTension name="Surface tension" units="N/m">
  <eqno value="106" />
  <A value="0.058981" />
  <B value="1.3138" />
  <C value="0" />
  <D value="0" />
  <E value="0" />
  <Tmin units="K" value="322.35" />
  <Tmax units="K" value="768.6" />
  </SurfaceTension>
<AntoineVaporPressure name="Antoine" units="Pa">
  <eqno value="10" />
  <A value="21.4" />
  <B value="4500" />
  <C value="-140" />
  <Tmin units="K" value="322" />
  <Tmax units="K" value="768" />
  </AntoineVaporPressure>
<FullerVolume name="Fuller et al. diffusion volume" units="_" value="339.05" />
<Parachor name="Parachor" units="kg0.25.m3/s0.5/kmol" value="0.121865" />
<SpecificGravity name="Specific gravity" units="_" value="0.818" />
<Charge name="Charge" units="_" value="0" />
<CostaldAcentricFactor name="SRK acentric factor" units="_" value="0.778775" />
<WilsonVolume name="Wilson volume" units="m3/kmol" value="0.2972" />
<UniquacR name="UNIQUAC r" units="_" value="12.0171" />
<UniquacQ name="UNIQUAC q" units="_" value="10.148" />
<ChaoSeaderAcentricFactor name="Chao-Seader acentric factor" units="_" value="0.778775" />
<ChaoSeaderSolubilityParameter name="Chao-Seader solubility parameter" units="J0.5/m1.5" value="18330" />
<ChaoSeaderLiquidVolume name="Chao-Seader liquid volume" units="m3/kmol" value="0.2972" />
<UnifacVLE name="UNIFAC">
  <group id="1" value="1" />
  <group id="2" value="15" />
  <group id="15" value="1" />
  </UnifacVLE>
<UnifacLLE name="UNIFAC-LLE">
  <group id="1" value="1" />
  <group id="2" value="15" />
  <group id="14" value="1" />
  </UnifacLLE>
<Asog name="ASOG">
  <group id="1" value="1" />
  <group id="2" value="15" />
  <group id="15" value="1" />
  </Asog>
<Umr name="UMR">
  <group id="1" value="1" />
  <group id="2" value="15" />
  <group id="15" value="1" />
  </Umr>
<ModifiedUnifac name="Modified UNIFAC">
  <group id="1" value="1" />
  <group id="2" value="15" />
  <group id="14" value="1" />
  </ModifiedUnifac>
<CAS name="CAS number" value="36653-82-4" />
<Smiles name="SMILES" value="CCCCCCCCCCCCCCCCO" />
</compound>

