<compound>
<LibraryIndex name="Index" value="266" />
<CompoundID name="Name" value="1-hexadecene" />
<StructureFormula name="Structure" value="CH3(CH2)13CHCH2" />
<Family name="Family" value="9" />
<CriticalTemperature name="Critical temperature" units="K" value="717.039" />
<CriticalPressure name="Critical pressure" units="Pa" value="1340000" />
<CriticalVolume name="Critical volume" units="m3/kmol" value="1.008" />
<CriticalCompressibility name="Critical compressibility factor" units="_" value="0.249" />
<NormalBoilingPointTemperature name="Normal boiling point" units="K" value="558.02" />
<NormalMeltingPointTemperature name="Melting point" units="K" value="277.27" />
<TriplePointTemperature name="Triple point temperature" units="K" value="277.51" />
<TriplePointPressure name="Triple point pressure" units="Pa" value="0.0244866" />
<MolecularWeight name="Molecular weight" units="kg/kmol" value="224.4253" />
<LiquidVolumeAtNormalBoilingPoint name="Liquid molar volume at normal boiling point" units="m3/kmol" value="0.2872" />
<AcentricityFactor name="Acentric factor" units="_" value="0.7213" />
<RadiusOfGyration name="Radius of gyration" units="m" value="6.985E-10" />
<SolubilityParameter name="Solubility parameter" units="J0.5/m1.5" value="16070" />
<DipoleMoment name="Dipole moment" units="Coulomb.m" value="1.7E-30" />
<VanDerWaalsVolume name="Van der Waals volume" units="m3/kmol" value="0.16707" />
<VanDerWaalsArea name="Van der Waals area" units="m2/kmol" value="2.261E+09" />
<HeatOfFormation name="IG heat of formation" units="J/kmol" value="-2.4865E+08" />
<GibbsEnergyOfFormation name="IG Gibbs energy of formation" units="J/kmol" value="1.6964E+08" />
<AbsEntropy name="IG absolute entropy" units="J/kmol/K" value="777960" />
<HeatOfFusionAtMeltingPoint name="Heat of fusion at melting point" units="J/kmol" value="3.019E+07" />
<MatthiasCopemanC1 name="Mathias-Copeman C1" units="_" value="1.528464" />
<HeatOfCombustion name="Standard net heat of combustion LHV" units="J/kmol" value="-9.831999E+09" />
<SolidDensity name="Solid density" units="kmol/m3">
  <eqno value="100" />
  <A value="4.5171" />
  <B value="-0.0020347" />
  <C value="0" />
  <D value="0" />
  <E value="0" />
  <Tmin units="K" value="111" />
  <Tmax units="K" value="277.51" />
  </SolidDensity>
<LiquidDensity name="Liquid density" units="kmol/m3">
  <eqno value="105" />
  <A value="0.22922" />
  <B value="0.23186" />
  <C value="722" />
  <D value="0.28571" />
  <Tmin units="K" value="277.51" />
  <Tmax units="K" value="722" />
  </LiquidDensity>
<VaporPressure name="Vapour pressure" units="Pa">
  <eqno value="101" />
  <A value="112.17" />
  <B value="-13052" />
  <C value="-12.238" />
  <D value="4.6987E-18" />
  <E value="6" />
  <Tmin units="K" value="277.51" />
  <Tmax units="K" value="722" />
  </VaporPressure>
<HeatOfVaporization name="Heat of vaporization" units="J/kmol">
  <eqno value="106" />
  <A value="9.7029E+07" />
  <B value="0.43657" />
  <C value="0" />
  <D value="0" />
  <E value="0.0000001" />
  <Tmin units="K" value="277.51" />
  <Tmax units="K" value="722" />
  </HeatOfVaporization>
<SolidHeatCapacityCp name="Solid heat capacity" units="J/kmol/K">
  <eqno value="100" />
  <A value="-37938" />
  <B value="2950.6" />
  <C value="-6.478" />
  <D value="-0.030133" />
  <E value="0.00015759" />
  <Tmin units="K" value="20" />
  <Tmax units="K" value="200" />
  </SolidHeatCapacityCp>
<LiquidHeatCapacityCp name="Liquid heat capacity" units="J/kmol/K">
  <eqno value="100" />
  <A value="252890" />
  <B value="966.24" />
  <C value="-0.95203" />
  <D value="0.0011152" />
  <E value="0" />
  <Tmin units="K" value="277.51" />
  <Tmax units="K" value="680" />
  </LiquidHeatCapacityCp>
<IdealGasHeatCapacityCp name="Ideal gas heat capacity" units="J/kmol/K">
  <eqno value="16" />
  <A value="211325.2" />
  <B value="-583.6278" />
  <C value="13.88794" />
  <D value="0.0000178465" />
  <E value="-1.706551E-08" />
  <Tmin units="K" value="100" />
  <Tmax units="K" value="1500" />
  </IdealGasHeatCapacityCp>
<SecondVirialCoefficient name="Second virial coefficient" units="m3/kmol">
  <eqno value="104" />
  <A value="0.54146" />
  <B value="-606.22" />
  <C value="-353.56" />
  <D value="-371960" />
  <E value="679380" />
  <Tmin units="K" value="361" />
  <Tmax units="K" value="1500" />
  </SecondVirialCoefficient>
<LiquidViscosity name="Liquid viscosity" units="Pa.s">
  <eqno value="101" />
  <A value="-11.938" />
  <B value="1805.5" />
  <C value="0" />
  <D value="0" />
  <E value="0" />
  <Tmin units="K" value="273.15" />
  <Tmax units="K" value="577.6" />
  </LiquidViscosity>
<VaporViscosity name="Vapour viscosity" units="Pa.s">
  <eqno value="102" />
  <A value="0.000049317" />
  <B value="0.078217" />
  <C value="5082.4" />
  <D value="0" />
  <Tmin units="K" value="277.51" />
  <Tmax units="K" value="1000" />
  </VaporViscosity>
<LiquidThermalConductivity name="Liquid thermal conductivity" units="W/m/K">
  <eqno value="100" />
  <A value="0.20367" />
  <B value="-0.00020689" />
  <C value="0" />
  <D value="0" />
  <E value="0" />
  <Tmin units="K" value="277.51" />
  <Tmax units="K" value="558.02" />
  </LiquidThermalConductivity>
<SurfaceTension name="Surface tension" units="N/m">
  <eqno value="106" />
  <A value="0.05686" />
  <B value="1.3758" />
  <C value="0" />
  <D value="0" />
  <E value="0.0000001" />
  <Tmin units="K" value="277.51" />
  <Tmax units="K" value="722" />
  </SurfaceTension>
<AntoineVaporPressure name="Antoine" units="Pa">
  <eqno value="10" />
  <A value="21.81181" />
  <B value="4806.567" />
  <C value="-90.78862" />
  <Tmin units="K" value="300" />
  <Tmax units="K" value="600" />
  </AntoineVaporPressure>
<FullerVolume name="Fuller et al. diffusion volume" units="_" value="328.32" />
<Parachor name="Parachor" units="kg0.25.m3/s0.5/kmol" value="0.117402" />
<SpecificGravity name="Specific gravity" units="_" value="0.785489" />
<Charge name="Charge" units="_" value="0" />
<CostaldAcentricFactor name="SRK acentric factor" units="_" value="0.7213" />
<WilsonVolume name="Wilson volume" units="m3/kmol" value="0.2872" />
<UniquacR name="UNIQUAC r" units="_" value="11.0137" />
<UniquacQ name="UNIQUAC q" units="_" value="9.044" />
<ChaoSeaderAcentricFactor name="Chao-Seader acentric factor" units="_" value="0.7213" />
<ChaoSeaderSolubilityParameter name="Chao-Seader solubility parameter" units="J0.5/m1.5" value="16070" />
<ChaoSeaderLiquidVolume name="Chao-Seader liquid volume" units="m3/kmol" value="0.2872" />
<UnifacVLE name="UNIFAC">
  <group id="1" value="1" />
  <group id="2" value="13" />
  <group id="5" value="1" />
  </UnifacVLE>
<UnifacLLE name="UNIFAC-LLE">
  <group id="1" value="1" />
  <group id="2" value="13" />
  <group id="5" value="1" />
  </UnifacLLE>
<Asog name="ASOG">
  <group id="1" value="1" />
  <group id="2" value="13" />
  <group id="5" value="1" />
  </Asog>
<GCmethod name="PPR78">
  <group id="1" value="1" />
  <group id="2" value="14" />
  <group id="18" value="1" />
  </GCmethod>
<Umr name="UMR">
  <group id="1" value="1" />
  <group id="2" value="13" />
  <group id="5" value="1" />
  </Umr>
<ModifiedUnifac name="Modified UNIFAC">
  <group id="1" value="1" />
  <group id="2" value="13" />
  <group id="5" value="1" />
  </ModifiedUnifac>
<CAS name="CAS number" value="629-73-2" />
<Smiles name="SMILES" value="C=CCCCCCCCCCCCCCC" />
</compound>

