<compound>
<LibraryIndex name="Index" value="587" />
<CompoundID name="Name" value="1-methyl-4-n-propylbenzene" />
<StructureFormula name="Structure" value="CH3(C6H4)CH2CH2CH3" />
<Family name="Family" value="17" />
<CriticalTemperature name="Critical temperature" units="K" value="658" />
<CriticalPressure name="Critical pressure" units="Pa" value="2860000" />
<CriticalVolume name="Critical volume" units="m3/kmol" value="0.482" />
<CriticalCompressibility name="Critical compressibility factor" units="_" value="0.248" />
<NormalBoilingPointTemperature name="Normal boiling point" units="K" value="456.53" />
<NormalMeltingPointTemperature name="Melting point" units="K" value="209.455" />
<TriplePointTemperature name="Triple point temperature" units="K" value="209.55" />
<TriplePointPressure name="Triple point pressure" units="Pa" value="0.0171898" />
<MolecularWeight name="Molecular weight" units="kg/kmol" value="134.2182" />
<LiquidVolumeAtNormalBoilingPoint name="Liquid molar volume at normal boiling point" units="m3/kmol" value="0.157097" />
<AcentricityFactor name="Acentric factor" units="_" value="0.413441" />
<RadiusOfGyration name="Radius of gyration" units="m" value="4.599E-10" />
<SolubilityParameter name="Solubility parameter" units="J0.5/m1.5" value="17460" />
<DipoleMoment name="Dipole moment" units="Coulomb.m" value="0" />
<VanDerWaalsVolume name="Van der Waals volume" units="m3/kmol" value="0.09112" />
<VanDerWaalsArea name="Van der Waals area" units="m2/kmol" value="1.154E+09" />
<HeatOfFormation name="IG heat of formation" units="J/kmol" value="-2.314E+07" />
<GibbsEnergyOfFormation name="IG Gibbs energy of formation" units="J/kmol" value="1.382E+08" />
<AbsEntropy name="IG absolute entropy" units="J/kmol/K" value="430400" />
<HeatOfFusionAtMeltingPoint name="Heat of fusion at melting point" units="J/kmol" value="1.151E+07" />
<MatthiasCopemanC1 name="Mathias-Copeman C1" units="_" value="1.09" />
<HeatOfCombustion name="Standard net heat of combustion LHV" units="J/kmol" value="-5.5528E+09" />
<SolidDensity name="Solid density" units="kmol/m3">
  <eqno value="100" />
  <A value="8.8857" />
  <B value="-0.0053004" />
  <C value="0" />
  <D value="0" />
  <E value="0" />
  <Tmin units="K" value="83.82" />
  <Tmax units="K" value="209.55" />
  </SolidDensity>
<LiquidDensity name="Liquid density" units="kmol/m3">
  <eqno value="105" />
  <A value="0.48219" />
  <B value="0.24259" />
  <C value="658" />
  <D value="0.32531" />
  <Tmin units="K" value="209.55" />
  <Tmax units="K" value="632.5" />
  </LiquidDensity>
<VaporPressure name="Vapour pressure" units="Pa">
  <eqno value="101" />
  <A value="103.2332" />
  <B value="-9321.423" />
  <C value="-11.85346" />
  <D value="6.228128E-06" />
  <E value="2" />
  <Tmin units="K" value="209.55" />
  <Tmax units="K" value="656" />
  </VaporPressure>
<HeatOfVaporization name="Heat of vaporization" units="J/kmol">
  <eqno value="106" />
  <A value="5.9632E+07" />
  <B value="-0.13089" />
  <C value="1.5769" />
  <D value="-1.8325" />
  <E value="0.74608" />
  <Tmin units="K" value="209.55" />
  <Tmax units="K" value="656" />
  </HeatOfVaporization>
<SolidHeatCapacityCp name="Solid heat capacity" units="J/kmol/K">
  <eqno value="1" />
  <A value="214740" />
  <Tmin units="K" value="0" />
  <Tmax units="K" value="658" />
  </SolidHeatCapacityCp>
<LiquidHeatCapacityCp name="Liquid heat capacity" units="J/kmol/K">
  <eqno value="16" />
  <A value="128960" />
  <B value="-102.23" />
  <C value="11.269" />
  <D value="0.0022913" />
  <E value="5.0742E-07" />
  <Tmin units="K" value="298.15" />
  <Tmax units="K" value="492" />
  </LiquidHeatCapacityCp>
<IdealGasHeatCapacityCp name="Ideal gas heat capacity" units="J/kmol/K">
  <eqno value="16" />
  <A value="97127" />
  <B value="-599.11" />
  <C value="13.273" />
  <D value="0.000011665" />
  <E value="-1.9003E-08" />
  <Tmin units="K" value="298.15" />
  <Tmax units="K" value="1500" />
  </IdealGasHeatCapacityCp>
<SecondVirialCoefficient name="Second virial coefficient" units="m3/kmol">
  <eqno value="104" />
  <A value="0.34983" />
  <B value="-450.15" />
  <C value="-93.925" />
  <D value="-54544" />
  <E value="91978" />
  <Tmin units="K" value="328" />
  <Tmax units="K" value="1500" />
  </SecondVirialCoefficient>
<LiquidViscosity name="Liquid viscosity" units="Pa.s">
  <eqno value="101" />
  <A value="-65.00531" />
  <B value="3273.06" />
  <C value="8.413079" />
  <D value="-0.0000101347" />
  <E value="2" />
  <Tmin units="K" value="209.55" />
  <Tmax units="K" value="553.15" />
  </LiquidViscosity>
<VaporViscosity name="Vapour viscosity" units="Pa.s">
  <eqno value="102" />
  <A value="7.8653E-08" />
  <B value="0.80621" />
  <C value="137.95" />
  <D value="-9253.2" />
  <Tmin units="K" value="209.55" />
  <Tmax units="K" value="1000" />
  </VaporViscosity>
<LiquidThermalConductivity name="Liquid thermal conductivity" units="W/m/K">
  <eqno value="16" />
  <A value="-0.081049" />
  <B value="3.2759" />
  <C value="-1.4026" />
  <D value="-0.00043634" />
  <E value="-7.9035E-07" />
  <Tmin units="K" value="209.55" />
  <Tmax units="K" value="456.45" />
  </LiquidThermalConductivity>
<VaporThermalConductivity name="Vapour thermal conductivity" units="W/m/K">
  <eqno value="102" />
  <A value="0.000083347" />
  <B value="1.0517" />
  <C value="573.97" />
  <D value="33136" />
  <Tmin units="K" value="209.55" />
  <Tmax units="K" value="1000" />
  </VaporThermalConductivity>
<SurfaceTension name="Surface tension" units="N/m">
  <eqno value="16" />
  <A value="-0.19472" />
  <B value="-2.8463" />
  <C value="-1.2726" />
  <D value="-0.000855" />
  <E value="4.6239E-07" />
  <Tmin units="K" value="209.55" />
  <Tmax units="K" value="656" />
  </SurfaceTension>
<RPPHeatCapacityCp name="Ideal gas heat capacity (RPP)" units="J/kmol/K">
  <eqno value="4" />
  <A value="-26053" />
  <B value="805.01" />
  <C value="-0.46803" />
  <D value="0.00010355" />
  <Tmin units="K" value="298.15" />
  <Tmax units="K" value="1500" />
  </RPPHeatCapacityCp>
<AntoineVaporPressure name="Antoine" units="Pa">
  <eqno value="10" />
  <A value="21.139" />
  <B value="3767" />
  <C value="-64.622" />
  <Tmin units="K" value="397.53" />
  <Tmax units="K" value="590" />
  </AntoineVaporPressure>
<LiquidViscosityRPS name="Liquid viscosity (RPS)" units="Pa.s">
  <eqno value="12" />
  <A value="-3.52" />
  <B value="-0.010859" />
  <Tmin units="K" value="209.55" />
  <Tmax units="K" value="553.15" />
  </LiquidViscosityRPS>
<COSTALDVolume name="COSTLD characteristic volume (V*)" units="m3/kmol" value="0.50161" />
<DiameterLJ name="Lennard Jones diameter" units="m" value="7.79684E-10" />
<EnergyLJ name="Lennard Jones energy" units="K" value="283.8998" />
<RacketParameter name="Rackett parameter" units="_" value="0.248" />
<FullerVolume name="Fuller et al. diffusion volume" units="_" value="173.04" />
<MatthiasCopemanC2 name="Mathias-Copeman C2" units="_" value="0" />
<Parachor name="Parachor" units="kg0.25.m3/s0.5/kmol" value="0.0648127" />
<SpecificGravity name="Specific gravity" units="_" value="0.863678" />
<Charge name="Charge" units="_" value="0" />
<CostaldAcentricFactor name="SRK acentric factor" units="_" value="0.413441" />
<WilsonVolume name="Wilson volume" units="m3/kmol" value="0.157097" />
<UniquacR name="UNIQUAC r" units="_" value="6.0066" />
<UniquacQ name="UNIQUAC q" units="_" value="4.616" />
<MatthiasCopemanC3 name="Mathias-Copeman C3" units="_" value="0" />
<ChaoSeaderAcentricFactor name="Chao-Seader acentric factor" units="_" value="0.413441" />
<ChaoSeaderSolubilityParameter name="Chao-Seader solubility parameter" units="J0.5/m1.5" value="17460" />
<ChaoSeaderLiquidVolume name="Chao-Seader liquid volume" units="m3/kmol" value="0.157097" />
<UnifacVLE name="UNIFAC">
  <group id="1" value="1" />
  <group id="2" value="1" />
  <group id="10" value="4" />
  <group id="12" value="1" />
  <group id="13" value="1" />
  </UnifacVLE>
<UnifacLLE name="UNIFAC-LLE">
  <group id="1" value="1" />
  <group id="2" value="1" />
  <group id="9" value="4" />
  <group id="11" value="1" />
  <group id="12" value="1" />
  </UnifacLLE>
<Asog name="ASOG">
  <group id="1" value="2" />
  <group id="2" value="2" />
  <group id="10" value="4" />
  <group id="11" value="2" />
  </Asog>
<GCmethod name="PPR78">
  <group id="1" value="2" />
  <group id="2" value="2" />
  <group id="7" value="4" />
  <group id="8" value="2" />
  </GCmethod>
<Umr name="UMR">
  <group id="1" value="1" />
  <group id="2" value="1" />
  <group id="10" value="4" />
  <group id="12" value="1" />
  <group id="13" value="1" />
  </Umr>
<ModifiedUnifac name="Modified UNIFAC">
  <group id="1" value="1" />
  <group id="2" value="1" />
  <group id="9" value="4" />
  <group id="11" value="1" />
  <group id="12" value="1" />
  </ModifiedUnifac>
<CAS name="CAS number" value="1074-55-1" />
<Smiles name="SMILES" value="c1(C)ccc(CCC)cc1" />
</compound>

