<compound>
<LibraryIndex name="Index" value="586" />
<CompoundID name="Name" value="1-methyl-3-n-propylbenzene" />
<StructureFormula name="Structure" value="CH3(C6H4)CH2CH2CH3" />
<Family name="Family" value="17" />
<CriticalTemperature name="Critical temperature" units="K" value="656" />
<CriticalPressure name="Critical pressure" units="Pa" value="2860000" />
<CriticalVolume name="Critical volume" units="m3/kmol" value="0.482" />
<CriticalCompressibility name="Critical compressibility factor" units="_" value="0.249" />
<NormalBoilingPointTemperature name="Normal boiling point" units="K" value="455.13" />
<NormalMeltingPointTemperature name="Melting point" units="K" value="190.57" />
<TriplePointTemperature name="Triple point temperature" units="K" value="190.57" />
<TriplePointPressure name="Triple point pressure" units="Pa" value="0.000721452" />
<MolecularWeight name="Molecular weight" units="kg/kmol" value="134.2182" />
<LiquidVolumeAtNormalBoilingPoint name="Liquid molar volume at normal boiling point" units="m3/kmol" value="0.156623" />
<AcentricityFactor name="Acentric factor" units="_" value="0.412785" />
<RadiusOfGyration name="Radius of gyration" units="m" value="4.794E-10" />
<SolubilityParameter name="Solubility parameter" units="J0.5/m1.5" value="17510" />
<DipoleMoment name="Dipole moment" units="Coulomb.m" value="4.07E-31" />
<VanDerWaalsVolume name="Van der Waals volume" units="m3/kmol" value="0.09112" />
<VanDerWaalsArea name="Van der Waals area" units="m2/kmol" value="1.154E+09" />
<HeatOfFormation name="IG heat of formation" units="J/kmol" value="-2.414E+07" />
<GibbsEnergyOfFormation name="IG Gibbs energy of formation" units="J/kmol" value="1.352E+08" />
<AbsEntropy name="IG absolute entropy" units="J/kmol/K" value="436800" />
<HeatOfFusionAtMeltingPoint name="Heat of fusion at melting point" units="J/kmol" value="1.06E+07" />
<HeatOfCombustion name="Standard net heat of combustion LHV" units="J/kmol" value="-5.5516E+09" />
<SolidDensity name="Solid density" units="kmol/m3">
  <eqno value="100" />
  <A value="9.0174" />
  <B value="-0.0059147" />
  <C value="0" />
  <D value="0" />
  <E value="0" />
  <Tmin units="K" value="76.23" />
  <Tmax units="K" value="190.57" />
  </SolidDensity>
<LiquidDensity name="Liquid density" units="kmol/m3">
  <eqno value="105" />
  <A value="0.18222" />
  <B value="0.15152" />
  <C value="656" />
  <D value="0.20178" />
  <Tmin units="K" value="190.57" />
  <Tmax units="K" value="654" />
  </LiquidDensity>
<VaporPressure name="Vapour pressure" units="Pa">
  <eqno value="101" />
  <A value="107.4588" />
  <B value="-9508.773" />
  <C value="-12.48918" />
  <D value="6.776919E-06" />
  <E value="2" />
  <Tmin units="K" value="190.57" />
  <Tmax units="K" value="654" />
  </VaporPressure>
<HeatOfVaporization name="Heat of vaporization" units="J/kmol">
  <eqno value="106" />
  <A value="6.194565E+07" />
  <B value="0.0524158" />
  <C value="1.088831" />
  <D value="-1.22236" />
  <E value="0.439479" />
  <Tmin units="K" value="190.57" />
  <Tmax units="K" value="654" />
  </HeatOfVaporization>
<SolidHeatCapacityCp name="Solid heat capacity" units="J/kmol/K">
  <eqno value="1" />
  <A value="214740" />
  <Tmin units="K" value="0" />
  <Tmax units="K" value="656" />
  </SolidHeatCapacityCp>
<LiquidHeatCapacityCp name="Liquid heat capacity" units="J/kmol/K">
  <eqno value="16" />
  <A value="156110" />
  <B value="-38.093" />
  <C value="10.159" />
  <D value="0.0050313" />
  <E value="-0.0000015247" />
  <Tmin units="K" value="298.15" />
  <Tmax units="K" value="490.5" />
  </LiquidHeatCapacityCp>
<IdealGasHeatCapacityCp name="Ideal gas heat capacity" units="J/kmol/K">
  <eqno value="16" />
  <A value="97127" />
  <B value="-599.11" />
  <C value="13.273" />
  <D value="0.000011665" />
  <E value="-1.9003E-08" />
  <Tmin units="K" value="298.15" />
  <Tmax units="K" value="1500" />
  </IdealGasHeatCapacityCp>
<SecondVirialCoefficient name="Second virial coefficient" units="m3/kmol">
  <eqno value="104" />
  <A value="0.34716" />
  <B value="-445.08" />
  <C value="-93.628" />
  <D value="-50591" />
  <E value="81753" />
  <Tmin units="K" value="327" />
  <Tmax units="K" value="1500" />
  </SecondVirialCoefficient>
<LiquidViscosity name="Liquid viscosity" units="Pa.s">
  <eqno value="101" />
  <A value="-17.301" />
  <B value="1601.4" />
  <C value="0.91018" />
  <D value="-0.0000014707" />
  <E value="2" />
  <Tmin units="K" value="190.57" />
  <Tmax units="K" value="603.15" />
  </LiquidViscosity>
<VaporViscosity name="Vapour viscosity" units="Pa.s">
  <eqno value="102" />
  <A value="7.3681E-08" />
  <B value="0.81524" />
  <C value="130.94" />
  <D value="-9552" />
  <Tmin units="K" value="190.57" />
  <Tmax units="K" value="1000" />
  </VaporViscosity>
<LiquidThermalConductivity name="Liquid thermal conductivity" units="W/m/K">
  <eqno value="16" />
  <A value="-0.074198" />
  <B value="4.023" />
  <C value="-1.4364" />
  <D value="-0.00042252" />
  <E value="-0.0000008562" />
  <Tmin units="K" value="190.57" />
  <Tmax units="K" value="454.95" />
  </LiquidThermalConductivity>
<VaporThermalConductivity name="Vapour thermal conductivity" units="W/m/K">
  <eqno value="102" />
  <A value="0.000083513" />
  <B value="1.0517" />
  <C value="570.8" />
  <D value="33790" />
  <Tmin units="K" value="190.57" />
  <Tmax units="K" value="1000" />
  </VaporThermalConductivity>
<SurfaceTension name="Surface tension" units="N/m">
  <eqno value="16" />
  <A value="-0.0086511" />
  <B value="61.14" />
  <C value="-3.1888" />
  <D value="0.0004569" />
  <E value="-0.0000046729" />
  <Tmin units="K" value="190.57" />
  <Tmax units="K" value="654" />
  </SurfaceTension>
<RPPHeatCapacityCp name="Ideal gas heat capacity (RPP)" units="J/kmol/K">
  <eqno value="4" />
  <A value="-26053" />
  <B value="805.01" />
  <C value="-0.46803" />
  <D value="0.00010355" />
  <Tmin units="K" value="298.15" />
  <Tmax units="K" value="1500" />
  </RPPHeatCapacityCp>
<AntoineVaporPressure name="Antoine" units="Pa">
  <eqno value="10" />
  <A value="21.2" />
  <B value="3779.7" />
  <C value="-64.304" />
  <Tmin units="K" value="395" />
  <Tmax units="K" value="590" />
  </AntoineVaporPressure>
<LiquidViscosityRPS name="Liquid viscosity (RPS)" units="Pa.s">
  <eqno value="12" />
  <A value="-3.1694" />
  <B value="-0.011417" />
  <Tmin units="K" value="190.57" />
  <Tmax units="K" value="603.15" />
  </LiquidViscosityRPS>
<COSTALDVolume name="COSTLD characteristic volume (V*)" units="m3/kmol" value="0.50161" />
<DiameterLJ name="Lennard Jones diameter" units="m" value="7.75928E-10" />
<EnergyLJ name="Lennard Jones energy" units="K" value="287.1671" />
<RacketParameter name="Rackett parameter" units="_" value="0.249" />
<FullerVolume name="Fuller et al. diffusion volume" units="_" value="173.04" />
<Parachor name="Parachor" units="kg0.25.m3/s0.5/kmol" value="0.0643271" />
<SpecificGravity name="Specific gravity" units="_" value="0.865762" />
<Charge name="Charge" units="_" value="0" />
<CostaldAcentricFactor name="SRK acentric factor" units="_" value="0.412785" />
<WilsonVolume name="Wilson volume" units="m3/kmol" value="0.156623" />
<UniquacR name="UNIQUAC r" units="_" value="6.0066" />
<UniquacQ name="UNIQUAC q" units="_" value="4.616" />
<ChaoSeaderAcentricFactor name="Chao-Seader acentric factor" units="_" value="0.412785" />
<ChaoSeaderSolubilityParameter name="Chao-Seader solubility parameter" units="J0.5/m1.5" value="17510" />
<ChaoSeaderLiquidVolume name="Chao-Seader liquid volume" units="m3/kmol" value="0.156623" />
<UnifacVLE name="UNIFAC">
  <group id="1" value="1" />
  <group id="2" value="1" />
  <group id="10" value="4" />
  <group id="12" value="1" />
  <group id="13" value="1" />
  </UnifacVLE>
<UnifacLLE name="UNIFAC-LLE">
  <group id="1" value="1" />
  <group id="2" value="1" />
  <group id="9" value="4" />
  <group id="11" value="1" />
  <group id="12" value="1" />
  </UnifacLLE>
<Asog name="ASOG">
  <group id="1" value="2" />
  <group id="2" value="2" />
  <group id="10" value="4" />
  <group id="11" value="2" />
  </Asog>
<GCmethod name="PPR78">
  <group id="1" value="2" />
  <group id="2" value="2" />
  <group id="7" value="4" />
  <group id="8" value="2" />
  </GCmethod>
<Umr name="UMR">
  <group id="1" value="1" />
  <group id="2" value="1" />
  <group id="10" value="4" />
  <group id="12" value="1" />
  <group id="13" value="1" />
  </Umr>
<ModifiedUnifac name="Modified UNIFAC">
  <group id="1" value="1" />
  <group id="2" value="1" />
  <group id="9" value="4" />
  <group id="11" value="1" />
  <group id="12" value="1" />
  </ModifiedUnifac>
<CAS name="CAS number" value="1074-43-7" />
<Smiles name="SMILES" value="c1(C)cc(CCC)ccc1" />
</compound>

