<compound>
<LibraryIndex name="Index" value="723" />
<CompoundID name="Name" value="1-methylindene" />
<StructureFormula name="Structure" value="CH3(C9H7)" />
<Family name="Family" value="23" />
<CriticalTemperature name="Critical temperature" units="K" value="703" />
<CriticalPressure name="Critical pressure" units="Pa" value="3460000" />
<CriticalVolume name="Critical volume" units="m3/kmol" value="0.436" />
<CriticalCompressibility name="Critical compressibility factor" units="_" value="0.258" />
<NormalBoilingPointTemperature name="Normal boiling point" units="K" value="471.65" />
<MolecularWeight name="Molecular weight" units="kg/kmol" value="130.1864" />
<LiquidVolumeAtNormalBoilingPoint name="Liquid molar volume at normal boiling point" units="m3/kmol" value="0.134643" />
<AcentricityFactor name="Acentric factor" units="_" value="0.334861" />
<RadiusOfGyration name="Radius of gyration" units="m" value="4.195E-10" />
<SolubilityParameter name="Solubility parameter" units="J0.5/m1.5" value="19120" />
<DipoleMoment name="Dipole moment" units="Coulomb.m" value="0" />
<VanDerWaalsVolume name="Van der Waals volume" units="m3/kmol" value="0.07745" />
<VanDerWaalsArea name="Van der Waals area" units="m2/kmol" value="8.56E+08" />
<HeatOfFormation name="IG heat of formation" units="J/kmol" value="1.912E+08" />
<GibbsEnergyOfFormation name="IG Gibbs energy of formation" units="J/kmol" value="2.97E+08" />
<AbsEntropy name="IG absolute entropy" units="J/kmol/K" value="354000" />
<HeatOfFusionAtMeltingPoint name="Heat of fusion at melting point" units="J/kmol" value="0" />
<HeatOfCombustion name="Standard net heat of combustion LHV" units="J/kmol" value="-5.28E+09" />
<SolidDensity name="Solid density" units="kmol/m3">
  <eqno value="2" />
  <A value="8.82" />
  <B value="-1.1395E-16" />
  <Tmin units="K" value="0" />
  <Tmax units="K" value="9.5" />
  </SolidDensity>
<LiquidDensity name="Liquid density" units="kmol/m3">
  <eqno value="105" />
  <A value="0.61191" />
  <B value="0.25938" />
  <C value="703" />
  <D value="0.29267" />
  <Tmin units="K" value="280" />
  <Tmax units="K" value="680.74" />
  </LiquidDensity>
<VaporPressure name="Vapour pressure" units="Pa">
  <eqno value="101" />
  <A value="86.18824" />
  <B value="-8859.756" />
  <C value="-9.212247" />
  <D value="3.741568E-06" />
  <E value="2" />
  <Tmin units="K" value="280" />
  <Tmax units="K" value="703" />
  </VaporPressure>
<HeatOfVaporization name="Heat of vaporization" units="J/kmol">
  <eqno value="106" />
  <A value="8.0901E+07" />
  <B value="1.9933" />
  <C value="-4.5733" />
  <D value="5.098" />
  <E value="-2.0923" />
  <Tmin units="K" value="280" />
  <Tmax units="K" value="680.74" />
  </HeatOfVaporization>
<SolidHeatCapacityCp name="Solid heat capacity" units="J/kmol/K">
  <eqno value="100" />
  <A value="-3419.9" />
  <B value="1162.6" />
  <C value="-5.6175" />
  <D value="0.02291" />
  <E value="-0.000035065" />
  <Tmin units="K" value="50" />
  <Tmax units="K" value="293.15" />
  </SolidHeatCapacityCp>
<LiquidHeatCapacityCp name="Liquid heat capacity" units="J/kmol/K">
  <eqno value="16" />
  <A value="152820" />
  <B value="-189.88" />
  <C value="10.81" />
  <D value="0.00256" />
  <E value="-0.0000011085" />
  <Tmin units="K" value="280" />
  <Tmax units="K" value="471.65" />
  </LiquidHeatCapacityCp>
<IdealGasHeatCapacityCp name="Ideal gas heat capacity" units="J/kmol/K">
  <eqno value="16" />
  <A value="-133130" />
  <B value="-213.74" />
  <C value="13.196" />
  <D value="0.00017372" />
  <E value="-4.8074E-08" />
  <Tmin units="K" value="273" />
  <Tmax units="K" value="1200" />
  </IdealGasHeatCapacityCp>
<SecondVirialCoefficient name="Second virial coefficient" units="m3/kmol">
  <eqno value="104" />
  <A value="0.28669" />
  <B value="-413.47" />
  <C value="-98.347" />
  <D value="-24136" />
  <E value="-27455" />
  <Tmin units="K" value="351.5" />
  <Tmax units="K" value="1931.5" />
  </SecondVirialCoefficient>
<VaporViscosity name="Vapour viscosity" units="Pa.s">
  <eqno value="102" />
  <A value="0.0000033072" />
  <B value="0.32792" />
  <C value="786.18" />
  <D value="680.97" />
  <Tmin units="K" value="280" />
  <Tmax units="K" value="1000" />
  </VaporViscosity>
<LiquidThermalConductivity name="Liquid thermal conductivity" units="W/m/K">
  <eqno value="16" />
  <A value="-0.018671" />
  <B value="-66.592" />
  <C value="-0.99313" />
  <D value="-0.0021306" />
  <E value="2.0941E-07" />
  <Tmin units="K" value="280" />
  <Tmax units="K" value="471.65" />
  </LiquidThermalConductivity>
<VaporThermalConductivity name="Vapour thermal conductivity" units="W/m/K">
  <eqno value="102" />
  <A value="0.000091267" />
  <B value="1.0385" />
  <C value="720.72" />
  <D value="-19410" />
  <Tmin units="K" value="471.65" />
  <Tmax units="K" value="1000" />
  </VaporThermalConductivity>
<SurfaceTension name="Surface tension" units="N/m">
  <eqno value="16" />
  <A value="-0.011077" />
  <B value="98.828" />
  <C value="-3.4597" />
  <D value="0.0014463" />
  <E value="-0.0000045421" />
  <Tmin units="K" value="280" />
  <Tmax units="K" value="680.74" />
  </SurfaceTension>
<RPPHeatCapacityCp name="Ideal gas heat capacity (RPP)" units="J/kmol/K">
  <eqno value="4" />
  <A value="-96611" />
  <B value="1045.1" />
  <C value="-0.86408" />
  <D value="0.00027375" />
  <Tmin units="K" value="300" />
  <Tmax units="K" value="1200" />
  </RPPHeatCapacityCp>
<AntoineVaporPressure name="Antoine" units="Pa">
  <eqno value="10" />
  <A value="21.371" />
  <B value="4079.4" />
  <C value="-58.289" />
  <Tmin units="K" value="280" />
  <Tmax units="K" value="703" />
  </AntoineVaporPressure>
<COSTALDVolume name="COSTLD characteristic volume (V*)" units="m3/kmol" value="0.419867" />
<DiameterLJ name="Lennard Jones diameter" units="m" value="7.191125E-10" />
<EnergyLJ name="Lennard Jones energy" units="K" value="349.703" />
<RacketParameter name="Rackett parameter" units="_" value="0.261176" />
<FullerVolume name="Fuller et al. diffusion volume" units="_" value="145.5" />
<Parachor name="Parachor" units="kg0.25.m3/s0.5/kmol" value="0.0578" />
<SpecificGravity name="Specific gravity" units="_" value="0.97441" />
<Charge name="Charge" units="_" value="0" />
<CostaldAcentricFactor name="SRK acentric factor" units="_" value="0.33569" />
<WilsonVolume name="Wilson volume" units="m3/kmol" value="0.134207" />
<UniquacR name="UNIQUAC r" units="_" value="5.105471" />
<UniquacQ name="UNIQUAC q" units="_" value="3.424" />
<ChaoSeaderAcentricFactor name="Chao-Seader acentric factor" units="_" value="0.33569" />
<ChaoSeaderSolubilityParameter name="Chao-Seader solubility parameter" units="J0.5/m1.5" value="18312.4" />
<ChaoSeaderLiquidVolume name="Chao-Seader liquid volume" units="m3/kmol" value="0.134207" />
<UnifacVLE name="UNIFAC">
  <group id="1" value="1" />
  <group id="6" value="1" />
  <group id="10" value="4" />
  <group id="11" value="1" />
  <group id="14" value="1" />
  </UnifacVLE>
<UnifacLLE name="UNIFAC-LLE">
  <group id="1" value="1" />
  <group id="3" value="1" />
  <group id="6" value="1" />
  <group id="9" value="4" />
  <group id="10" value="2" />
  </UnifacLLE>
<Asog name="ASOG">
  <group id="1" value="1" />
  <group id="3" value="1" />
  <group id="6" value="1" />
  <group id="10" value="4" />
  <group id="11" value="2" />
  </Asog>
<GCmethod name="PPR78">
  <group id="1" value="1" />
  <group id="7" value="4" />
  <group id="9" value="2" />
  <group id="11" value="1" />
  <group id="20" value="2" />
  </GCmethod>
<Umr name="UMR">
  <group id="1" value="1" />
  <group id="6" value="1" />
  <group id="10" value="4" />
  <group id="11" value="1" />
  <group id="14" value="1" />
  </Umr>
<ModifiedUnifac name="Modified UNIFAC">
  <group id="1" value="1" />
  <group id="6" value="1" />
  <group id="9" value="4" />
  <group id="10" value="1" />
  <group id="13" value="1" />
  </ModifiedUnifac>
<CAS name="CAS number" value="767-59-9" />
<Smiles name="SMILES" value="C1=CC=C2C(=C1)C=CC2C" />
</compound>

