<compound>
<LibraryIndex name="Index" value="702" />
<CompoundID name="Name" value="1-methylnaphthalene" />
<StructureFormula name="Structure" value="(C6H4)(C4H3)CH3" />
<Family name="Family" value="19" />
<CriticalTemperature name="Critical temperature" units="K" value="772" />
<CriticalPressure name="Critical pressure" units="Pa" value="3600000" />
<CriticalVolume name="Critical volume" units="m3/kmol" value="0.462" />
<CriticalCompressibility name="Critical compressibility factor" units="_" value="0.259" />
<NormalBoilingPointTemperature name="Normal boiling point" units="K" value="517.84" />
<NormalMeltingPointTemperature name="Melting point" units="K" value="242.67" />
<TriplePointTemperature name="Triple point temperature" units="K" value="242.67" />
<TriplePointPressure name="Triple point pressure" units="Pa" value="0.043382" />
<MolecularWeight name="Molecular weight" units="kg/kmol" value="142.1971" />
<LiquidVolumeAtNormalBoilingPoint name="Liquid molar volume at normal boiling point" units="m3/kmol" value="0.13937" />
<AcentricityFactor name="Acentric factor" units="_" value="0.348" />
<RadiusOfGyration name="Radius of gyration" units="m" value="4.435E-10" />
<SolubilityParameter name="Solubility parameter" units="J0.5/m1.5" value="19890" />
<DipoleMoment name="Dipole moment" units="Coulomb.m" value="1.7E-30" />
<VanDerWaalsVolume name="Van der Waals volume" units="m3/kmol" value="0.08511" />
<VanDerWaalsArea name="Van der Waals area" units="m2/kmol" value="9.84E+08" />
<HeatOfFormation name="IG heat of formation" units="J/kmol" value="1.169E+08" />
<GibbsEnergyOfFormation name="IG Gibbs energy of formation" units="J/kmol" value="2.179E+08" />
<AbsEntropy name="IG absolute entropy" units="J/kmol/K" value="377400" />
<HeatOfFusionAtMeltingPoint name="Heat of fusion at melting point" units="J/kmol" value="6945000" />
<MatthiasCopemanC1 name="Mathias-Copeman C1" units="_" value="0.96548" />
<HeatOfCombustion name="Standard net heat of combustion LHV" units="J/kmol" value="-5.5958E+09" />
<SolidDensity name="Solid density" units="kmol/m3">
  <eqno value="2" />
  <A value="9.4144" />
  <B value="-0.0042867" />
  <Tmin units="K" value="97.07" />
  <Tmax units="K" value="242.67" />
  </SolidDensity>
<LiquidDensity name="Liquid density" units="kmol/m3">
  <eqno value="105" />
  <A value="0.59739" />
  <B value="0.26468" />
  <C value="772" />
  <D value="0.2918" />
  <Tmin units="K" value="242.67" />
  <Tmax units="K" value="753.15" />
  </LiquidDensity>
<VaporPressure name="Vapour pressure" units="Pa">
  <eqno value="101" />
  <A value="73.89852" />
  <B value="-9115.529" />
  <C value="-7.252019" />
  <D value="2.094885E-06" />
  <E value="2" />
  <Tmin units="K" value="242.67" />
  <Tmax units="K" value="772.15" />
  </VaporPressure>
<HeatOfVaporization name="Heat of vaporization" units="J/kmol">
  <eqno value="106" />
  <A value="7.0001E+07" />
  <B value="0.3382" />
  <C value="0.060354" />
  <D value="-0.021035" />
  <E value="-0.0086978" />
  <Tmin units="K" value="242.67" />
  <Tmax units="K" value="772.15" />
  </HeatOfVaporization>
<SolidHeatCapacityCp name="Solid heat capacity" units="J/kmol/K">
  <eqno value="100" />
  <A value="-10175" />
  <B value="1369.3" />
  <C value="-8.8231" />
  <D value="0.038851" />
  <E value="-0.000058806" />
  <Tmin units="K" value="10" />
  <Tmax units="K" value="240.81" />
  </SolidHeatCapacityCp>
<LiquidHeatCapacityCp name="Liquid heat capacity" units="J/kmol/K">
  <eqno value="16" />
  <A value="134210" />
  <B value="116.27" />
  <C value="8.3119" />
  <D value="0.012175" />
  <E value="-0.000010378" />
  <Tmin units="K" value="242.67" />
  <Tmax units="K" value="400" />
  </LiquidHeatCapacityCp>
<IdealGasHeatCapacityCp name="Ideal gas heat capacity" units="J/kmol/K">
  <eqno value="16" />
  <A value="67134" />
  <B value="-530.75" />
  <C value="13.222" />
  <D value="-0.000033319" />
  <E value="-3.2916E-09" />
  <Tmin units="K" value="200" />
  <Tmax units="K" value="1500" />
  </IdealGasHeatCapacityCp>
<SecondVirialCoefficient name="Second virial coefficient" units="m3/kmol">
  <eqno value="104" />
  <A value="0.15567" />
  <B value="-253.83" />
  <C value="-196.1" />
  <D value="-31135" />
  <E value="-111130" />
  <Tmin units="K" value="340" />
  <Tmax units="K" value="1500" />
  </SecondVirialCoefficient>
<LiquidViscosity name="Liquid viscosity" units="Pa.s">
  <eqno value="101" />
  <A value="8.170859" />
  <B value="1169.912" />
  <C value="-3.261889" />
  <D value="6.874562E-06" />
  <E value="2" />
  <Tmin units="K" value="242.67" />
  <Tmax units="K" value="617.6" />
  </LiquidViscosity>
<VaporViscosity name="Vapour viscosity" units="Pa.s">
  <eqno value="102" />
  <A value="2.4606E-07" />
  <B value="0.6456" />
  <C value="239.2" />
  <D value="-8656.8" />
  <Tmin units="K" value="242.67" />
  <Tmax units="K" value="1000" />
  </VaporViscosity>
<LiquidThermalConductivity name="Liquid thermal conductivity" units="W/m/K">
  <eqno value="16" />
  <A value="-0.049867" />
  <B value="2.2749" />
  <C value="-1.45" />
  <D value="-0.00045282" />
  <E value="-7.0729E-07" />
  <Tmin units="K" value="242.67" />
  <Tmax units="K" value="517.83" />
  </LiquidThermalConductivity>
<VaporThermalConductivity name="Vapour thermal conductivity" units="W/m/K">
  <eqno value="102" />
  <A value="1.5229" />
  <B value="-0.35024" />
  <C value="-1389.7" />
  <D value="2465100" />
  <Tmin units="K" value="242.67" />
  <Tmax units="K" value="1000" />
  </VaporThermalConductivity>
<SurfaceTension name="Surface tension" units="N/m">
  <eqno value="16" />
  <A value="-0.013368" />
  <B value="52.546" />
  <C value="-2.9174" />
  <D value="0.00019752" />
  <E value="-0.0000028051" />
  <Tmin units="K" value="242.67" />
  <Tmax units="K" value="744.14" />
  </SurfaceTension>
<RPPHeatCapacityCp name="Ideal gas heat capacity (RPP)" units="J/kmol/K">
  <eqno value="100" />
  <A value="-46869" />
  <B value="820.01" />
  <C value="-0.41207" />
  <D value="-0.000085888" />
  <E value="1.0651E-07" />
  <Tmin units="K" value="298" />
  <Tmax units="K" value="1000" />
  </RPPHeatCapacityCp>
<AntoineVaporPressure name="Antoine" units="Pa">
  <eqno value="10" />
  <A value="21.512" />
  <B value="4531" />
  <C value="-63.887" />
  <Tmin units="K" value="464" />
  <Tmax units="K" value="693.15" />
  </AntoineVaporPressure>
<LiquidViscosityRPS name="Liquid viscosity (RPS)" units="Pa.s">
  <eqno value="13" />
  <A value="6.0924" />
  <B value="-0.056774" />
  <C value="0.000057342" />
  <Tmin units="K" value="242.67" />
  <Tmax units="K" value="517.83" />
  </LiquidViscosityRPS>
<COSTALDVolume name="COSTLD characteristic volume (V*)" units="m3/kmol" value="0.465187" />
<DiameterLJ name="Lennard Jones diameter" units="m" value="7.297362E-10" />
<EnergyLJ name="Lennard Jones energy" units="K" value="389.4123" />
<FullerVolume name="Fuller et al. diffusion volume" units="_" value="161.4" />
<MatthiasCopemanC2 name="Mathias-Copeman C2" units="_" value="0.37108" />
<Parachor name="Parachor" units="kg0.25.m3/s0.5/kmol" value="0.0623" />
<SpecificGravity name="Specific gravity" units="_" value="1.0232" />
<Charge name="Charge" units="_" value="0" />
<CostaldAcentricFactor name="SRK acentric factor" units="_" value="0.3337" />
<WilsonVolume name="Wilson volume" units="m3/kmol" value="0.1398" />
<UniquacR name="UNIQUAC r" units="_" value="5.610415" />
<UniquacQ name="UNIQUAC q" units="_" value="3.936" />
<ApiSrkS2 name="API-SRK s2" units="_" value="0.056699" />
<MatthiasCopemanC3 name="Mathias-Copeman C3" units="_" value="-0.77801" />
<ChaoSeaderAcentricFactor name="Chao-Seader acentric factor" units="_" value="0.3337" />
<ChaoSeaderSolubilityParameter name="Chao-Seader solubility parameter" units="J0.5/m1.5" value="20129.2" />
<ChaoSeaderLiquidVolume name="Chao-Seader liquid volume" units="m3/kmol" value="0.1398" />
<UnifacVLE name="UNIFAC">
  <group id="10" value="7" />
  <group id="11" value="2" />
  <group id="12" value="1" />
  </UnifacVLE>
<UnifacLLE name="UNIFAC-LLE">
  <group id="9" value="7" />
  <group id="10" value="2" />
  <group id="11" value="1" />
  </UnifacLLE>
<Asog name="ASOG">
  <group id="1" value="1" />
  <group id="10" value="7" />
  <group id="11" value="3" />
  </Asog>
<GCmethod name="PPR78">
  <group id="1" value="1" />
  <group id="7" value="7" />
  <group id="8" value="1" />
  <group id="9" value="2" />
  </GCmethod>
<Umr name="UMR">
  <group id="10" value="7" />
  <group id="11" value="2" />
  <group id="12" value="1" />
  </Umr>
<ModifiedUnifac name="Modified UNIFAC">
  <group id="9" value="7" />
  <group id="10" value="2" />
  <group id="11" value="1" />
  </ModifiedUnifac>
<CAS name="CAS number" value="90-12-0" />
<Smiles name="SMILES" value="c1(C)cccc2ccccc21" />
</compound>

