<compound>
<LibraryIndex name="Index" value="1769" />
<CompoundID name="Name" value="1-nitrobutane" />
<StructureFormula name="Structure" value="CH3(CH2)3NO2" />
<Family name="Family" value="39" />
<CriticalTemperature name="Critical temperature" units="K" value="623" />
<CriticalPressure name="Critical pressure" units="Pa" value="3600000" />
<CriticalVolume name="Critical volume" units="m3/kmol" value="0.338" />
<CriticalCompressibility name="Critical compressibility factor" units="_" value="0.248" />
<NormalBoilingPointTemperature name="Normal boiling point" units="K" value="425.92" />
<NormalMeltingPointTemperature name="Melting point" units="K" value="191.82" />
<TriplePointTemperature name="Triple point temperature" units="K" value="191.82" />
<TriplePointPressure name="Triple point pressure" units="Pa" value="0.00329301" />
<MolecularWeight name="Molecular weight" units="kg/kmol" value="103.1198" />
<LiquidVolumeAtNormalBoilingPoint name="Liquid molar volume at normal boiling point" units="m3/kmol" value="0.106476" />
<AcentricityFactor name="Acentric factor" units="_" value="0.454584" />
<RadiusOfGyration name="Radius of gyration" units="m" value="3.558E-10" />
<SolubilityParameter name="Solubility parameter" units="J0.5/m1.5" value="20780" />
<DipoleMoment name="Dipole moment" units="Coulomb.m" value="1.13E-29" />
<VanDerWaalsVolume name="Van der Waals volume" units="m3/kmol" value="0.06116" />
<VanDerWaalsArea name="Van der Waals area" units="m2/kmol" value="8.72E+08" />
<HeatOfFormation name="IG heat of formation" units="J/kmol" value="-1.439E+08" />
<GibbsEnergyOfFormation name="IG Gibbs energy of formation" units="J/kmol" value="1.5E+07" />
<AbsEntropy name="IG absolute entropy" units="J/kmol/K" value="379100" />
<HeatOfFusionAtMeltingPoint name="Heat of fusion at melting point" units="J/kmol" value="1.27E+07" />
<MatthiasCopemanC1 name="Mathias-Copeman C1" units="_" value="1.08195" />
<HeatOfCombustion name="Standard net heat of combustion LHV" units="J/kmol" value="-2.46965E+09" />
<SolidDensity name="Solid density" units="kmol/m3">
  <eqno value="100" />
  <A value="13.265" />
  <B value="-0.0086439" />
  <C value="0" />
  <D value="0" />
  <E value="0" />
  <Tmin units="K" value="76.73" />
  <Tmax units="K" value="191.82" />
  </SolidDensity>
<LiquidDensity name="Liquid density" units="kmol/m3">
  <eqno value="105" />
  <A value="0.709" />
  <B value="0.24401" />
  <C value="623" />
  <D value="0.28339" />
  <Tmin units="K" value="191.82" />
  <Tmax units="K" value="600.31" />
  </LiquidDensity>
<VaporPressure name="Vapour pressure" units="Pa">
  <eqno value="101" />
  <A value="275.2044" />
  <B value="-15483.84" />
  <C value="-38.70231" />
  <D value="0.0000386" />
  <E value="2" />
  <Tmin units="K" value="191.82" />
  <Tmax units="K" value="623" />
  </VaporPressure>
<HeatOfVaporization name="Heat of vaporization" units="J/kmol">
  <eqno value="106" />
  <A value="5.525605E+07" />
  <B value="-1.025854" />
  <C value="4.47262" />
  <D value="-4.675607" />
  <E value="1.466497" />
  <Tmin units="K" value="191.82" />
  <Tmax units="K" value="600.31" />
  </HeatOfVaporization>
<SolidHeatCapacityCp name="Solid heat capacity" units="J/kmol/K">
  <eqno value="102" />
  <A value="1900" />
  <B value="0.79267" />
  <C value="0" />
  <D value="0" />
  <Tmin units="K" value="50" />
  <Tmax units="K" value="191.82" />
  </SolidHeatCapacityCp>
<LiquidHeatCapacityCp name="Liquid heat capacity" units="J/kmol/K">
  <eqno value="16" />
  <A value="56152" />
  <B value="6.6387" />
  <C value="10.762" />
  <D value="0.003942" />
  <E value="-0.0000013791" />
  <Tmin units="K" value="191.82" />
  <Tmax units="K" value="467.25" />
  </LiquidHeatCapacityCp>
<IdealGasHeatCapacityCp name="Ideal gas heat capacity" units="J/kmol/K">
  <eqno value="16" />
  <A value="69545" />
  <B value="-548.77" />
  <C value="12.729" />
  <D value="0.0001233" />
  <E value="-6.7656E-08" />
  <Tmin units="K" value="200" />
  <Tmax units="K" value="1500" />
  </IdealGasHeatCapacityCp>
<SecondVirialCoefficient name="Second virial coefficient" units="m3/kmol">
  <eqno value="104" />
  <A value="0.22917" />
  <B value="-262.47" />
  <C value="-73.827" />
  <D value="-67561" />
  <E value="117970" />
  <Tmin units="K" value="311.5" />
  <Tmax units="K" value="1500" />
  </SecondVirialCoefficient>
<LiquidViscosity name="Liquid viscosity" units="Pa.s">
  <eqno value="101" />
  <A value="-8.4776" />
  <B value="1274.9" />
  <C value="-0.51437" />
  <D value="0.0000019485" />
  <E value="2" />
  <Tmin units="K" value="191.82" />
  <Tmax units="K" value="473" />
  </LiquidViscosity>
<VaporViscosity name="Vapour viscosity" units="Pa.s">
  <eqno value="102" />
  <A value="9.0308E-08" />
  <B value="0.82266" />
  <C value="144.36" />
  <D value="-9193.7" />
  <Tmin units="K" value="191.82" />
  <Tmax units="K" value="1000" />
  </VaporViscosity>
<LiquidThermalConductivity name="Liquid thermal conductivity" units="W/m/K">
  <eqno value="16" />
  <A value="-0.088752" />
  <B value="4.014" />
  <C value="-1.2388" />
  <D value="-0.00043694" />
  <E value="-0.0000009691" />
  <Tmin units="K" value="191.82" />
  <Tmax units="K" value="425.92" />
  </LiquidThermalConductivity>
<VaporThermalConductivity name="Vapour thermal conductivity" units="W/m/K">
  <eqno value="102" />
  <A value="0.00013665" />
  <B value="0.98745" />
  <C value="630.3" />
  <D value="15608" />
  <Tmin units="K" value="191.82" />
  <Tmax units="K" value="1000" />
  </VaporThermalConductivity>
<SurfaceTension name="Surface tension" units="N/m">
  <eqno value="16" />
  <A value="-0.043136" />
  <B value="2.5171" />
  <C value="-2.3094" />
  <D value="-0.00084543" />
  <E value="-8.2017E-07" />
  <Tmin units="K" value="191.82" />
  <Tmax units="K" value="600.31" />
  </SurfaceTension>
<RPPHeatCapacityCp name="Ideal gas heat capacity (RPP)" units="J/kmol/K">
  <eqno value="4" />
  <A value="-1162" />
  <B value="505.07" />
  <C value="-0.28865" />
  <D value="0.000060633" />
  <Tmin units="K" value="200" />
  <Tmax units="K" value="1500" />
  </RPPHeatCapacityCp>
<AntoineVaporPressure name="Antoine" units="Pa">
  <eqno value="10" />
  <A value="20.871" />
  <B value="3253.5" />
  <C value="-77.411" />
  <Tmin units="K" value="383.15" />
  <Tmax units="K" value="554.92" />
  </AntoineVaporPressure>
<LiquidViscosityRPS name="Liquid viscosity (RPS)" units="Pa.s">
  <eqno value="12" />
  <A value="-2.177" />
  <B value="-0.015145" />
  <Tmin units="K" value="191.82" />
  <Tmax units="K" value="425.92" />
  </LiquidViscosityRPS>
<COSTALDVolume name="COSTLD characteristic volume (V*)" units="m3/kmol" value="0.327091" />
<DiameterLJ name="Lennard Jones diameter" units="m" value="6.926947E-10" />
<EnergyLJ name="Lennard Jones energy" units="K" value="268.7988" />
<RacketParameter name="Rackett parameter" units="_" value="0.248" />
<FullerVolume name="Fuller et al. diffusion volume" units="_" value="101.15" />
<MatthiasCopemanC2 name="Mathias-Copeman C2" units="_" value="0" />
<Parachor name="Parachor" units="kg0.25.m3/s0.5/kmol" value="0.0450147" />
<SpecificGravity name="Specific gravity" units="_" value="0.978442" />
<Charge name="Charge" units="_" value="0" />
<CostaldAcentricFactor name="SRK acentric factor" units="_" value="0.454584" />
<WilsonVolume name="Wilson volume" units="m3/kmol" value="0.106476" />
<UniquacR name="UNIQUAC r" units="_" value="4.0317" />
<UniquacQ name="UNIQUAC q" units="_" value="3.488" />
<MatthiasCopemanC3 name="Mathias-Copeman C3" units="_" value="0" />
<ChaoSeaderAcentricFactor name="Chao-Seader acentric factor" units="_" value="0.454584" />
<ChaoSeaderSolubilityParameter name="Chao-Seader solubility parameter" units="J0.5/m1.5" value="20780" />
<ChaoSeaderLiquidVolume name="Chao-Seader liquid volume" units="m3/kmol" value="0.106476" />
<UnifacVLE name="UNIFAC">
  <group id="1" value="1" />
  <group id="2" value="2" />
  <group id="56" value="1" />
  </UnifacVLE>
<UnifacLLE name="UNIFAC-LLE">
  <group id="1" value="1" />
  <group id="2" value="2" />
  <group id="45" value="1" />
  </UnifacLLE>
<Asog name="ASOG">
  <group id="1" value="1" />
  <group id="2" value="3" />
  <group id="33" value="1" />
  </Asog>
<Umr name="UMR">
  <group id="1" value="1" />
  <group id="2" value="2" />
  <group id="56" value="1" />
  </Umr>
<ModifiedUnifac name="Modified UNIFAC">
  <group id="1" value="1" />
  <group id="2" value="2" />
  <group id="55" value="1" />
  </ModifiedUnifac>
<CAS name="CAS number" value="627-05-4" />
<Smiles name="SMILES" value="CCCCN(=O)=O" />
</compound>

