<compound>
<LibraryIndex name="Index" value="19004" />
<CompoundID name="Name" value="1-nonadecanol" />
<StructureFormula name="Structure" value="CH3(CH2)18OH" />
<Family name="Family" value="27" />
<CriticalTemperature name="Critical temperature" units="K" value="795" />
<CriticalPressure name="Critical pressure" units="Pa" value="1142842" />
<CriticalVolume name="Critical volume" units="m3/kmol" value="1.11334" />
<CriticalCompressibility name="Critical compressibility factor" units="_" value="0.192492" />
<NormalBoilingPointTemperature name="Normal boiling point" units="K" value="624" />
<NormalMeltingPointTemperature name="Melting point" units="K" value="335.15" />
<MolecularWeight name="Molecular weight" units="kg/kmol" value="284.5203" />
<AcentricityFactor name="Acentric factor" units="_" value="0.86" />
<HeatOfFormation name="IG heat of formation" units="J/kmol" value="-5.877199E+08" />
<GibbsEnergyOfFormation name="IG Gibbs energy of formation" units="J/kmol" value="-2.182669E+07" />
<AbsEntropy name="IG absolute entropy" units="J/kmol/K" value="943807.1" />
<HeatOfCombustion name="Standard net heat of combustion LHV" units="J/kmol" value="-1.17341E+10" />
<IdealGasHeatCapacityCp name="Ideal gas heat capacity" units="J/kmol/K">
  <eqno value="16" />
  <A value="187973.3" />
  <B value="-500" />
  <C value="14.086" />
  <D value="0" />
  <E value="0" />
  <Tmin units="K" value="255" />
  <Tmax units="K" value="1500" />
  </IdealGasHeatCapacityCp>
<AntoineVaporPressure name="Antoine" units="Pa">
  <eqno value="10" />
  <A value="21.18022" />
  <B value="4622.981" />
  <C value="-145.1398" />
  <Tmin units="K" value="335" />
  <Tmax units="K" value="795" />
  </AntoineVaporPressure>
<FullerVolume name="Fuller et al. diffusion volume" units="_" value="400.61" />
<Parachor name="Parachor" units="kg0.25.m3/s0.5/kmol" value="0.143205" />
<SpecificGravity name="Specific gravity" units="_" value="0.84" />
<Charge name="Charge" units="_" value="0" />
<UniquacR name="UNIQUAC r" units="_" value="14.0403" />
<UniquacQ name="UNIQUAC q" units="_" value="11.768" />
<UnifacVLE name="UNIFAC">
  <group id="1" value="1" />
  <group id="2" value="18" />
  <group id="15" value="1" />
  </UnifacVLE>
<UnifacLLE name="UNIFAC-LLE">
  <group id="1" value="1" />
  <group id="2" value="18" />
  <group id="14" value="1" />
  </UnifacLLE>
<Asog name="ASOG">
  <group id="1" value="1" />
  <group id="2" value="18" />
  <group id="15" value="1" />
  </Asog>
<Umr name="UMR">
  <group id="1" value="1" />
  <group id="2" value="18" />
  <group id="15" value="1" />
  </Umr>
<ModifiedUnifac name="Modified UNIFAC">
  <group id="1" value="1" />
  <group id="2" value="18" />
  <group id="14" value="1" />
  </ModifiedUnifac>
<CAS name="CAS number" value="1454-84-8" />
<Smiles name="SMILES" value="CCCCCCCCCCCCCCCCCCCO" />
</compound>

