<compound>
<LibraryIndex name="Index" value="1134" />
<CompoundID name="Name" value="1-nonanol" />
<StructureFormula name="Structure" value="CH3(CH2)8OH" />
<Family name="Family" value="27" />
<CriticalTemperature name="Critical temperature" units="K" value="670.9" />
<CriticalPressure name="Critical pressure" units="Pa" value="2527000" />
<CriticalVolume name="Critical volume" units="m3/kmol" value="0.576" />
<CriticalCompressibility name="Critical compressibility factor" units="_" value="0.261" />
<NormalBoilingPointTemperature name="Normal boiling point" units="K" value="485.2" />
<NormalMeltingPointTemperature name="Melting point" units="K" value="268.15" />
<TriplePointTemperature name="Triple point temperature" units="K" value="268.15" />
<TriplePointPressure name="Triple point pressure" units="Pa" value="0.0855" />
<MolecularWeight name="Molecular weight" units="kg/kmol" value="144.255" />
<LiquidVolumeAtNormalBoilingPoint name="Liquid molar volume at normal boiling point" units="m3/kmol" value="0.175" />
<AcentricityFactor name="Acentric factor" units="_" value="0.584074" />
<RadiusOfGyration name="Radius of gyration" units="m" value="5.108E-10" />
<SolubilityParameter name="Solubility parameter" units="J0.5/m1.5" value="20850" />
<DipoleMoment name="Dipole moment" units="Coulomb.m" value="5.37E-30" />
<VanDerWaalsVolume name="Van der Waals volume" units="m3/kmol" value="0.1036" />
<VanDerWaalsArea name="Van der Waals area" units="m2/kmol" value="1.438E+09" />
<HeatOfFormation name="IG heat of formation" units="J/kmol" value="-3.779E+08" />
<GibbsEnergyOfFormation name="IG Gibbs energy of formation" units="J/kmol" value="-1.086E+08" />
<AbsEntropy name="IG absolute entropy" units="J/kmol/K" value="557900" />
<HeatOfFusionAtMeltingPoint name="Heat of fusion at melting point" units="J/kmol" value="2.68E+07" />
<HeatOfCombustion name="Standard net heat of combustion LHV" units="J/kmol" value="-5.506E+09" />
<SolidDensity name="Solid density" units="kmol/m3">
  <eqno value="100" />
  <A value="7.4874" />
  <B value="-0.0034903" />
  <C value="0" />
  <D value="0" />
  <E value="0" />
  <Tmin units="K" value="107.26" />
  <Tmax units="K" value="268.15" />
  </SolidDensity>
<LiquidDensity name="Liquid density" units="kmol/m3">
  <eqno value="105" />
  <A value="0.43682" />
  <B value="0.25161" />
  <C value="670.9" />
  <D value="0.2498" />
  <Tmin units="K" value="268.15" />
  <Tmax units="K" value="670.9" />
  </LiquidDensity>
<VaporPressure name="Vapour pressure" units="Pa">
  <eqno value="101" />
  <A value="162.85" />
  <B value="-15205" />
  <C value="-19.424" />
  <D value="1.0722E-17" />
  <E value="6" />
  <Tmin units="K" value="268.15" />
  <Tmax units="K" value="670.9" />
  </VaporPressure>
<HeatOfVaporization name="Heat of vaporization" units="J/kmol">
  <eqno value="106" />
  <A value="7.5429E+07" />
  <B value="-1.5966" />
  <C value="4.6489" />
  <D value="-2.7229" />
  <E value="0" />
  <Tmin units="K" value="268.15" />
  <Tmax units="K" value="670.9" />
  </HeatOfVaporization>
<SolidHeatCapacityCp name="Solid heat capacity" units="J/kmol/K">
  <eqno value="102" />
  <A value="3654.1" />
  <B value="0.73578" />
  <C value="0" />
  <D value="0" />
  <Tmin units="K" value="50" />
  <Tmax units="K" value="268.15" />
  </SolidHeatCapacityCp>
<LiquidHeatCapacityCp name="Liquid heat capacity" units="J/kmol/K">
  <eqno value="100" />
  <A value="1.0483E+07" />
  <B value="-115220" />
  <C value="476.87" />
  <D value="-0.85381" />
  <E value="0.00056246" />
  <Tmin units="K" value="310" />
  <Tmax units="K" value="460" />
  </LiquidHeatCapacityCp>
<IdealGasHeatCapacityCp name="Ideal gas heat capacity" units="J/kmol/K">
  <eqno value="107" />
  <A value="154000" />
  <B value="493600" />
  <C value="1578" />
  <D value="358800" />
  <E value="721.11" />
  <Tmin units="K" value="298.15" />
  <Tmax units="K" value="1500" />
  </IdealGasHeatCapacityCp>
<SecondVirialCoefficient name="Second virial coefficient" units="m3/kmol">
  <eqno value="104" />
  <A value="0.3809" />
  <B value="-300.17" />
  <C value="-1.5611E+08" />
  <D value="-2.3008E+21" />
  <E value="2.6155E+22" />
  <Tmin units="K" value="335.35" />
  <Tmax units="K" value="1500" />
  </SecondVirialCoefficient>
<LiquidViscosity name="Liquid viscosity" units="Pa.s">
  <eqno value="101" />
  <A value="-39.863" />
  <B value="4089" />
  <C value="3.7631" />
  <D value="0" />
  <E value="0" />
  <Tmin units="K" value="280" />
  <Tmax units="K" value="486.25" />
  </LiquidViscosity>
<VaporViscosity name="Vapour viscosity" units="Pa.s">
  <eqno value="102" />
  <A value="0.00000012" />
  <B value="0.74" />
  <C value="180" />
  <D value="0" />
  <Tmin units="K" value="268.15" />
  <Tmax units="K" value="1000" />
  </VaporViscosity>
<LiquidThermalConductivity name="Liquid thermal conductivity" units="W/m/K">
  <eqno value="100" />
  <A value="0.24054" />
  <B value="-0.00025" />
  <C value="0" />
  <D value="0" />
  <E value="0" />
  <Tmin units="K" value="268.15" />
  <Tmax units="K" value="578.65" />
  </LiquidThermalConductivity>
<VaporThermalConductivity name="Vapour thermal conductivity" units="W/m/K">
  <eqno value="102" />
  <A value="-30.715" />
  <B value="-0.1075" />
  <C value="8107" />
  <D value="-1.5683E+08" />
  <Tmin units="K" value="485.2" />
  <Tmax units="K" value="1000" />
  </VaporThermalConductivity>
<SurfaceTension name="Surface tension" units="N/m">
  <eqno value="106" />
  <A value="0.051752" />
  <B value="1.0562" />
  <C value="0" />
  <D value="0" />
  <E value="0" />
  <Tmin units="K" value="268.15" />
  <Tmax units="K" value="670.9" />
  </SurfaceTension>
<AntoineVaporPressure name="Antoine" units="Pa">
  <eqno value="10" />
  <A value="21.1" />
  <B value="3500" />
  <C value="-120" />
  <Tmin units="K" value="268" />
  <Tmax units="K" value="670" />
  </AntoineVaporPressure>
<FullerVolume name="Fuller et al. diffusion volume" units="_" value="195.41" />
<Parachor name="Parachor" units="kg0.25.m3/s0.5/kmol" value="0.0720736" />
<SpecificGravity name="Specific gravity" units="_" value="0.827" />
<Charge name="Charge" units="_" value="0" />
<CostaldAcentricFactor name="SRK acentric factor" units="_" value="0.584074" />
<WilsonVolume name="Wilson volume" units="m3/kmol" value="0.175" />
<UniquacR name="UNIQUAC r" units="_" value="7.2963" />
<UniquacQ name="UNIQUAC q" units="_" value="6.368" />
<ChaoSeaderAcentricFactor name="Chao-Seader acentric factor" units="_" value="0.584074" />
<ChaoSeaderSolubilityParameter name="Chao-Seader solubility parameter" units="J0.5/m1.5" value="20850" />
<ChaoSeaderLiquidVolume name="Chao-Seader liquid volume" units="m3/kmol" value="0.175" />
<UnifacVLE name="UNIFAC">
  <group id="1" value="1" />
  <group id="2" value="8" />
  <group id="15" value="1" />
  </UnifacVLE>
<UnifacLLE name="UNIFAC-LLE">
  <group id="1" value="1" />
  <group id="2" value="8" />
  <group id="14" value="1" />
  </UnifacLLE>
<Asog name="ASOG">
  <group id="1" value="1" />
  <group id="2" value="8" />
  <group id="15" value="1" />
  </Asog>
<Umr name="UMR">
  <group id="1" value="1" />
  <group id="2" value="8" />
  <group id="15" value="1" />
  </Umr>
<ModifiedUnifac name="Modified UNIFAC">
  <group id="1" value="1" />
  <group id="2" value="8" />
  <group id="14" value="1" />
  </ModifiedUnifac>
<CAS name="CAS number" value="143-08-8" />
<Smiles name="SMILES" value="CCCCCCCCCO" />
</compound>

