<compound>
<LibraryIndex name="Index" value="250" />
<CompoundID name="Name" value="1-octene" />
<StructureFormula name="Structure" value="CH2CH(CH2)5CH3" />
<Family name="Family" value="9" />
<CriticalTemperature name="Critical temperature" units="K" value="567" />
<CriticalPressure name="Critical pressure" units="Pa" value="2680000" />
<CriticalVolume name="Critical volume" units="m3/kmol" value="0.468" />
<CriticalCompressibility name="Critical compressibility factor" units="_" value="0.266" />
<NormalBoilingPointTemperature name="Normal boiling point" units="K" value="394.44" />
<NormalMeltingPointTemperature name="Melting point" units="K" value="171.45" />
<TriplePointTemperature name="Triple point temperature" units="K" value="171.45" />
<TriplePointPressure name="Triple point pressure" units="Pa" value="0.00298" />
<MolecularWeight name="Molecular weight" units="kg/kmol" value="112.2126" />
<LiquidVolumeAtNormalBoilingPoint name="Liquid molar volume at normal boiling point" units="m3/kmol" value="0.15785" />
<AcentricityFactor name="Acentric factor" units="_" value="0.393" />
<RadiusOfGyration name="Radius of gyration" units="m" value="4.457E-10" />
<SolubilityParameter name="Solubility parameter" units="J0.5/m1.5" value="15540" />
<DipoleMoment name="Dipole moment" units="Coulomb.m" value="1.4E-30" />
<VanDerWaalsVolume name="Van der Waals volume" units="m3/kmol" value="0.08523" />
<VanDerWaalsArea name="Van der Waals area" units="m2/kmol" value="1.181E+09" />
<HeatOfFormation name="IG heat of formation" units="J/kmol" value="-8.194E+07" />
<GibbsEnergyOfFormation name="IG Gibbs energy of formation" units="J/kmol" value="1.057E+08" />
<AbsEntropy name="IG absolute entropy" units="J/kmol/K" value="463700" />
<HeatOfFusionAtMeltingPoint name="Heat of fusion at melting point" units="J/kmol" value="1.531E+07" />
<MatthiasCopemanC1 name="Mathias-Copeman C1" units="_" value="1.0842" />
<HeatOfCombustion name="Standard net heat of combustion LHV" units="J/kmol" value="-4.961E+09" />
<SolidDensity name="Solid density" units="kmol/m3">
  <eqno value="2" />
  <A value="9.1732" />
  <B value="-0.0061137" />
  <C value="0" />
  <D value="0" />
  <E value="0" />
  <Tmin units="K" value="68.58" />
  <Tmax units="K" value="171.45" />
  </SolidDensity>
<LiquidDensity name="Liquid density" units="kmol/m3">
  <eqno value="105" />
  <A value="0.44684" />
  <B value="0.23463" />
  <C value="567" />
  <D value="0.24846" />
  <Tmin units="K" value="171.45" />
  <Tmax units="K" value="566.9" />
  </LiquidDensity>
<VaporPressure name="Vapour pressure" units="Pa">
  <eqno value="101" />
  <A value="177.7155" />
  <B value="-11137.29" />
  <C value="-23.58923" />
  <D value="0.000019592" />
  <E value="2" />
  <Tmin units="K" value="171.45" />
  <Tmax units="K" value="566.9" />
  </VaporPressure>
<HeatOfVaporization name="Heat of vaporization" units="J/kmol">
  <eqno value="106" />
  <A value="5.7062E+07" />
  <B value="0.3453" />
  <C value="0.41628" />
  <D value="-0.36125" />
  <E value="-0.059539" />
  <Tmin units="K" value="171.45" />
  <Tmax units="K" value="566.9" />
  </HeatOfVaporization>
<SolidHeatCapacityCp name="Solid heat capacity" units="J/kmol/K">
  <eqno value="100" />
  <A value="-18727" />
  <B value="1711.3" />
  <C value="-4.6191" />
  <D value="-0.021907" />
  <E value="0.00013331" />
  <Tmin units="K" value="12" />
  <Tmax units="K" value="171.48" />
  </SolidHeatCapacityCp>
<LiquidHeatCapacityCp name="Liquid heat capacity" units="J/kmol/K">
  <eqno value="16" />
  <A value="-24253" />
  <B value="87.834" />
  <C value="11.35" />
  <D value="0.0032002" />
  <E value="-0.0000012467" />
  <Tmin units="K" value="171" />
  <Tmax units="K" value="454" />
  </LiquidHeatCapacityCp>
<IdealGasHeatCapacityCp name="Ideal gas heat capacity" units="J/kmol/K">
  <eqno value="16" />
  <A value="106430" />
  <B value="-593.77" />
  <C value="13.154" />
  <D value="0.00006689" />
  <E value="-2.6274E-08" />
  <Tmin units="K" value="200" />
  <Tmax units="K" value="1500" />
  </IdealGasHeatCapacityCp>
<SecondVirialCoefficient name="Second virial coefficient" units="m3/kmol">
  <eqno value="104" />
  <A value="0.26737" />
  <B value="-340.49" />
  <C value="-61.032" />
  <D value="-4988.1" />
  <E value="1129.3" />
  <Tmin units="K" value="264" />
  <Tmax units="K" value="1983.1" />
  </SecondVirialCoefficient>
<LiquidViscosity name="Liquid viscosity" units="Pa.s">
  <eqno value="101" />
  <A value="-5.8042" />
  <B value="945.32" />
  <C value="-0.93827" />
  <D value="0.0000032767" />
  <E value="2" />
  <Tmin units="K" value="171.45" />
  <Tmax units="K" value="453.52" />
  </LiquidViscosity>
<VaporViscosity name="Vapour viscosity" units="Pa.s">
  <eqno value="102" />
  <A value="0.000047664" />
  <B value="0.084052" />
  <C value="3514.6" />
  <D value="21127" />
  <Tmin units="K" value="171.45" />
  <Tmax units="K" value="1000" />
  </VaporViscosity>
<LiquidThermalConductivity name="Liquid thermal conductivity" units="W/m/K">
  <eqno value="16" />
  <A value="0.035226" />
  <B value="40.754" />
  <C value="-2.2668" />
  <D value="0.00092297" />
  <E value="-0.0000060301" />
  <Tmin units="K" value="171.45" />
  <Tmax units="K" value="513.15" />
  </LiquidThermalConductivity>
<VaporThermalConductivity name="Vapour thermal conductivity" units="W/m/K">
  <eqno value="102" />
  <A value="0.000014109" />
  <B value="1.354" />
  <C value="610.51" />
  <D value="-30915" />
  <Tmin units="K" value="171.45" />
  <Tmax units="K" value="1000" />
  </VaporThermalConductivity>
<SurfaceTension name="Surface tension" units="N/m">
  <eqno value="16" />
  <A value="-0.14483" />
  <B value="-2.7807" />
  <C value="-1.5504" />
  <D value="-0.00091294" />
  <E value="4.2416E-07" />
  <Tmin units="K" value="171.45" />
  <Tmax units="K" value="566.9" />
  </SurfaceTension>
<RPPHeatCapacityCp name="Ideal gas heat capacity (RPP)" units="J/kmol/K">
  <eqno value="100" />
  <A value="72710" />
  <B value="110.08" />
  <C value="1.2552" />
  <D value="-0.0017373" />
  <E value="6.9559E-07" />
  <Tmin units="K" value="200" />
  <Tmax units="K" value="1000" />
  </RPPHeatCapacityCp>
<RelativeStaticPermittivity name="Relative static permittivity" units="_">
  <eqno value="120" />
  <A value="-1.5046" />
  <B value="-1050" />
  <C value="-6.3" />
  <Tmin units="K" value="278.5945" />
  <Tmax units="K" value="448.5945" />
  </RelativeStaticPermittivity>
<AntoineVaporPressure name="Antoine" units="Pa">
  <eqno value="10" />
  <A value="20.716" />
  <B value="3032.4" />
  <C value="-64.529" />
  <Tmin units="K" value="340.25" />
  <Tmax units="K" value="504.46" />
  </AntoineVaporPressure>
<LiquidViscosityRPS name="Liquid viscosity (RPS)" units="Pa.s">
  <eqno value="12" />
  <A value="-3.9394" />
  <B value="-0.012055" />
  <Tmin units="K" value="171.45" />
  <Tmax units="K" value="453.52" />
  </LiquidViscosityRPS>
<COSTALDVolume name="COSTLD characteristic volume (V*)" units="m3/kmol" value="0.465907" />
<DiameterLJ name="Lennard Jones diameter" units="m" value="7.097994E-10" />
<EnergyLJ name="Lennard Jones energy" units="K" value="314.8257" />
<RacketParameter name="Rackett parameter" units="_" value="0.266" />
<FullerVolume name="Fuller et al. diffusion volume" units="_" value="164.16" />
<MatthiasCopemanC2 name="Mathias-Copeman C2" units="_" value="-0.37034" />
<Parachor name="Parachor" units="kg0.25.m3/s0.5/kmol" value="0.0596194" />
<SpecificGravity name="Specific gravity" units="_" value="0.720816" />
<Charge name="Charge" units="_" value="0" />
<CostaldAcentricFactor name="SRK acentric factor" units="_" value="0.393" />
<WilsonVolume name="Wilson volume" units="m3/kmol" value="0.15785" />
<UniquacR name="UNIQUAC r" units="_" value="5.6185" />
<UniquacQ name="UNIQUAC q" units="_" value="4.724" />
<ApiSrkS2 name="API-SRK s2" units="_" value="-0.002307" />
<MatthiasCopemanC3 name="Mathias-Copeman C3" units="_" value="0.78497" />
<ChaoSeaderAcentricFactor name="Chao-Seader acentric factor" units="_" value="0.393" />
<ChaoSeaderSolubilityParameter name="Chao-Seader solubility parameter" units="J0.5/m1.5" value="15540" />
<ChaoSeaderLiquidVolume name="Chao-Seader liquid volume" units="m3/kmol" value="0.15785" />
<UnifacVLE name="UNIFAC">
  <group id="1" value="1" />
  <group id="2" value="5" />
  <group id="5" value="1" />
  </UnifacVLE>
<UnifacLLE name="UNIFAC-LLE">
  <group id="1" value="1" />
  <group id="2" value="5" />
  <group id="5" value="1" />
  </UnifacLLE>
<Asog name="ASOG">
  <group id="1" value="1" />
  <group id="2" value="5" />
  <group id="5" value="1" />
  </Asog>
<GCmethod name="PPR78">
  <group id="1" value="1" />
  <group id="2" value="6" />
  <group id="18" value="1" />
  </GCmethod>
<Umr name="UMR">
  <group id="1" value="1" />
  <group id="2" value="5" />
  <group id="5" value="1" />
  </Umr>
<ModifiedUnifac name="Modified UNIFAC">
  <group id="1" value="1" />
  <group id="2" value="5" />
  <group id="5" value="1" />
  </ModifiedUnifac>
<CAS name="CAS number" value="111-66-0" />
<Smiles name="SMILES" value="C=CCCCCCC" />
</compound>

