<compound>
<LibraryIndex name="Index" value="1109" />
<CompoundID name="Name" value="1-pentanol" />
<StructureFormula name="Structure" value="CH3(CH2)4OH" />
<Family name="Family" value="27" />
<CriticalTemperature name="Critical temperature" units="K" value="588.15" />
<CriticalPressure name="Critical pressure" units="Pa" value="3909000" />
<CriticalVolume name="Critical volume" units="m3/kmol" value="0.326" />
<CriticalCompressibility name="Critical compressibility factor" units="_" value="0.262" />
<NormalBoilingPointTemperature name="Normal boiling point" units="K" value="411.16" />
<NormalMeltingPointTemperature name="Melting point" units="K" value="194.95" />
<TriplePointTemperature name="Triple point temperature" units="K" value="195.56" />
<TriplePointPressure name="Triple point pressure" units="Pa" value="0.000345245" />
<MolecularWeight name="Molecular weight" units="kg/kmol" value="88.14818" />
<LiquidVolumeAtNormalBoilingPoint name="Liquid molar volume at normal boiling point" units="m3/kmol" value="0.10863" />
<AcentricityFactor name="Acentric factor" units="_" value="0.579" />
<RadiusOfGyration name="Radius of gyration" units="m" value="3.679E-10" />
<SolubilityParameter name="Solubility parameter" units="J0.5/m1.5" value="22520" />
<DipoleMoment name="Dipole moment" units="Coulomb.m" value="5.67059E-30" />
<VanDerWaalsVolume name="Van der Waals volume" units="m3/kmol" value="0.06263" />
<VanDerWaalsArea name="Van der Waals area" units="m2/kmol" value="8.98E+08" />
<HeatOfFormation name="IG heat of formation" units="J/kmol" value="-3.0016E+08" />
<GibbsEnergyOfFormation name="IG Gibbs energy of formation" units="J/kmol" value="-1.46022E+08" />
<AbsEntropy name="IG absolute entropy" units="J/kmol/K" value="402501" />
<HeatOfFusionAtMeltingPoint name="Heat of fusion at melting point" units="J/kmol" value="9790560" />
<MatthiasCopemanC1 name="Mathias-Copeman C1" units="_" value="1.3176" />
<HeatOfCombustion name="Standard net heat of combustion LHV" units="J/kmol" value="-3.06051E+09" />
<SolidDensity name="Solid density" units="kmol/m3">
  <eqno value="2" />
  <A value="11.8" />
  <B value="7.9473E-09" />
  <C value="0" />
  <D value="0" />
  <E value="0" />
  <Tmin units="K" value="195.56" />
  <Tmax units="K" value="205.06" />
  </SolidDensity>
<LiquidDensity name="Liquid density" units="kmol/m3">
  <eqno value="105" />
  <A value="0.54137" />
  <B value="0.21848" />
  <C value="588.15" />
  <D value="0.20812" />
  <Tmin units="K" value="195.56" />
  <Tmax units="K" value="588.1" />
  </LiquidDensity>
<VaporPressure name="Vapour pressure" units="Pa">
  <eqno value="101" />
  <A value="150.9933" />
  <B value="-11938.85" />
  <C value="-18.59103" />
  <D value="8.735585E-06" />
  <E value="2" />
  <Tmin units="K" value="195.56" />
  <Tmax units="K" value="588.1" />
  </VaporPressure>
<HeatOfVaporization name="Heat of vaporization" units="J/kmol">
  <eqno value="106" />
  <A value="1.1853E+08" />
  <B value="1.9668" />
  <C value="-2.5741" />
  <D value="1.6268" />
  <E value="-0.41037" />
  <Tmin units="K" value="195.56" />
  <Tmax units="K" value="588.1" />
  </HeatOfVaporization>
<SolidHeatCapacityCp name="Solid heat capacity" units="J/kmol/K">
  <eqno value="100" />
  <A value="-15533" />
  <B value="1421.2" />
  <C value="-4.9071" />
  <D value="-0.013872" />
  <E value="0.00011092" />
  <Tmin units="K" value="21.61" />
  <Tmax units="K" value="195.56" />
  </SolidHeatCapacityCp>
<LiquidHeatCapacityCp name="Liquid heat capacity" units="J/kmol/K">
  <eqno value="16" />
  <A value="151460" />
  <B value="721.52" />
  <C value="-3.5691" />
  <D value="0.059604" />
  <E value="-0.000063767" />
  <Tmin units="K" value="200.14" />
  <Tmax units="K" value="390" />
  </LiquidHeatCapacityCp>
<IdealGasHeatCapacityCp name="Ideal gas heat capacity" units="J/kmol/K">
  <eqno value="16" />
  <A value="78144" />
  <B value="-573.83" />
  <C value="12.781" />
  <D value="0.00015431" />
  <E value="-6.6745E-08" />
  <Tmin units="K" value="200" />
  <Tmax units="K" value="1500" />
  </IdealGasHeatCapacityCp>
<SecondVirialCoefficient name="Second virial coefficient" units="m3/kmol">
  <eqno value="104" />
  <A value="0.24054" />
  <B value="-258.72" />
  <C value="-37.585" />
  <D value="50573" />
  <E value="-237590" />
  <Tmin units="K" value="294.05" />
  <Tmax units="K" value="1871.1" />
  </SecondVirialCoefficient>
<LiquidViscosity name="Liquid viscosity" units="Pa.s">
  <eqno value="101" />
  <A value="-29.696" />
  <B value="3126.2" />
  <C value="2.4167" />
  <D value="-0.0000024327" />
  <E value="2" />
  <Tmin units="K" value="253.15" />
  <Tmax units="K" value="450" />
  </LiquidViscosity>
<VaporViscosity name="Vapour viscosity" units="Pa.s">
  <eqno value="102" />
  <A value="1.9935E-07" />
  <B value="0.70293" />
  <C value="200.97" />
  <D value="-2040.7" />
  <Tmin units="K" value="277.39" />
  <Tmax units="K" value="1000" />
  </VaporViscosity>
<LiquidThermalConductivity name="Liquid thermal conductivity" units="W/m/K">
  <eqno value="16" />
  <A value="0.14679" />
  <B value="201570" />
  <C value="-2097.5" />
  <D value="7.255" />
  <E value="-0.0083973" />
  <Tmin units="K" value="273.15" />
  <Tmax units="K" value="373.15" />
  </LiquidThermalConductivity>
<VaporThermalConductivity name="Vapour thermal conductivity" units="W/m/K">
  <eqno value="102" />
  <A value="1221.5" />
  <B value="0.95117" />
  <C value="8.0014E+09" />
  <D value="-2.8255E+11" />
  <Tmin units="K" value="195.56" />
  <Tmax units="K" value="990.95" />
  </VaporThermalConductivity>
<SurfaceTension name="Surface tension" units="N/m">
  <eqno value="16" />
  <A value="-0.066781" />
  <B value="-45.948" />
  <C value="-1.8289" />
  <D value="-0.0013347" />
  <E value="-5.553E-08" />
  <Tmin units="K" value="273.15" />
  <Tmax units="K" value="503.15" />
  </SurfaceTension>
<RPPHeatCapacityCp name="Ideal gas heat capacity (RPP)" units="J/kmol/K">
  <eqno value="100" />
  <A value="45979" />
  <B value="140.41" />
  <C value="0.78405" />
  <D value="-0.0011412" />
  <E value="4.6619E-07" />
  <Tmin units="K" value="200" />
  <Tmax units="K" value="1000" />
  </RPPHeatCapacityCp>
<RelativeStaticPermittivity name="Relative static permittivity" units="_">
  <eqno value="120" />
  <A value="-13.20079" />
  <B value="-6950" />
  <C value="-41.7" />
  <Tmin units="K" value="279.15" />
  <Tmax units="K" value="449.15" />
  </RelativeStaticPermittivity>
<AntoineVaporPressure name="Antoine" units="Pa">
  <eqno value="10" />
  <A value="21.459" />
  <B value="3044" />
  <C value="-104.53" />
  <Tmin units="K" value="353.15" />
  <Tmax units="K" value="526.12" />
  </AntoineVaporPressure>
<LiquidViscosityRPS name="Liquid viscosity (RPS)" units="Pa.s">
  <eqno value="12" />
  <A value="1.4416" />
  <B value="-0.023533" />
  <Tmin units="K" value="253.15" />
  <Tmax units="K" value="420" />
  </LiquidViscosityRPS>
<COSTALDVolume name="COSTLD characteristic volume (V*)" units="m3/kmol" value="0.335285" />
<DiameterLJ name="Lennard Jones diameter" units="m" value="6.40751E-10" />
<EnergyLJ name="Lennard Jones energy" units="K" value="309.2331" />
<RacketParameter name="Rackett parameter" units="_" value="0.262" />
<FullerVolume name="Fuller et al. diffusion volume" units="_" value="113.33" />
<MatthiasCopemanC2 name="Mathias-Copeman C2" units="_" value="-0.0103" />
<Parachor name="Parachor" units="kg0.25.m3/s0.5/kmol" value="0.0436411" />
<SpecificGravity name="Specific gravity" units="_" value="0.819862" />
<Charge name="Charge" units="_" value="0" />
<CostaldAcentricFactor name="SRK acentric factor" units="_" value="0.579" />
<WilsonVolume name="Wilson volume" units="m3/kmol" value="0.10863" />
<UniquacR name="UNIQUAC r" units="_" value="4.5987" />
<UniquacQ name="UNIQUAC q" units="_" value="4.208" />
<MatthiasCopemanC3 name="Mathias-Copeman C3" units="_" value="1.3301" />
<ChaoSeaderAcentricFactor name="Chao-Seader acentric factor" units="_" value="0.579" />
<ChaoSeaderSolubilityParameter name="Chao-Seader solubility parameter" units="J0.5/m1.5" value="22520" />
<ChaoSeaderLiquidVolume name="Chao-Seader liquid volume" units="m3/kmol" value="0.10863" />
<UnifacVLE name="UNIFAC">
  <group id="1" value="1" />
  <group id="2" value="4" />
  <group id="15" value="1" />
  </UnifacVLE>
<UnifacLLE name="UNIFAC-LLE">
  <group id="1" value="1" />
  <group id="2" value="4" />
  <group id="14" value="1" />
  </UnifacLLE>
<Asog name="ASOG">
  <group id="1" value="1" />
  <group id="2" value="4" />
  <group id="15" value="1" />
  </Asog>
<GCmethod name="PPR78">
  <group id="1" value="1" />
  <group id="2" value="4" />
  <group id="41" value="1" />
  </GCmethod>
<Umr name="UMR">
  <group id="1" value="1" />
  <group id="2" value="4" />
  <group id="15" value="1" />
  </Umr>
<ModifiedUnifac name="Modified UNIFAC">
  <group id="1" value="1" />
  <group id="2" value="4" />
  <group id="14" value="1" />
  </ModifiedUnifac>
<CAS name="CAS number" value="71-41-0" />
<Smiles name="SMILES" value="CCCCCO" />
</compound>

