<compound>
<LibraryIndex name="Index" value="1103" />
<CompoundID name="Name" value="1-propanol" />
<StructureFormula name="Structure" value="CH3(CH2)2OH" />
<Family name="Family" value="27" />
<CriticalTemperature name="Critical temperature" units="K" value="536.78" />
<CriticalPressure name="Critical pressure" units="Pa" value="5175000" />
<CriticalVolume name="Critical volume" units="m3/kmol" value="0.219" />
<CriticalCompressibility name="Critical compressibility factor" units="_" value="0.254" />
<NormalBoilingPointTemperature name="Normal boiling point" units="K" value="370.93" />
<NormalMeltingPointTemperature name="Melting point" units="K" value="146.95" />
<TriplePointTemperature name="Triple point temperature" units="K" value="146.95" />
<TriplePointPressure name="Triple point pressure" units="Pa" value="3.69121E-07" />
<MolecularWeight name="Molecular weight" units="kg/kmol" value="60.09502" />
<LiquidVolumeAtNormalBoilingPoint name="Liquid molar volume at normal boiling point" units="m3/kmol" value="0.07514" />
<AcentricityFactor name="Acentric factor" units="_" value="0.629" />
<RadiusOfGyration name="Radius of gyration" units="m" value="2.7359E-10" />
<SolubilityParameter name="Solubility parameter" units="J0.5/m1.5" value="24450" />
<DipoleMoment name="Dipole moment" units="Coulomb.m" value="5.6E-30" />
<VanDerWaalsVolume name="Van der Waals volume" units="m3/kmol" value="0.04217" />
<VanDerWaalsArea name="Van der Waals area" units="m2/kmol" value="6.28E+08" />
<HeatOfFormation name="IG heat of formation" units="J/kmol" value="-2.552E+08" />
<GibbsEnergyOfFormation name="IG Gibbs energy of formation" units="J/kmol" value="-1.599E+08" />
<AbsEntropy name="IG absolute entropy" units="J/kmol/K" value="322470" />
<HeatOfFusionAtMeltingPoint name="Heat of fusion at melting point" units="J/kmol" value="5372000" />
<MatthiasCopemanC1 name="Mathias-Copeman C1" units="_" value="1.1406" />
<HeatOfCombustion name="Standard net heat of combustion LHV" units="J/kmol" value="-1.84381E+09" />
<SolidDensity name="Solid density" units="kmol/m3">
  <eqno value="2" />
  <A value="18.17" />
  <B value="-0.0024097" />
  <Tmin units="K" value="146.95" />
  <Tmax units="K" value="156.45" />
  </SolidDensity>
<LiquidDensity name="Liquid density" units="kmol/m3">
  <eqno value="105" />
  <A value="1.1537" />
  <B value="0.26188" />
  <C value="536.78" />
  <D value="0.23549" />
  <Tmin units="K" value="146.95" />
  <Tmax units="K" value="536.65" />
  </LiquidDensity>
<VaporPressure name="Vapour pressure" units="Pa">
  <eqno value="101" />
  <A value="141.3971" />
  <B value="-10434.27" />
  <C value="-17.45829" />
  <D value="0.0000113246" />
  <E value="2" />
  <Tmin units="K" value="146.95" />
  <Tmax units="K" value="536.85" />
  </VaporPressure>
<HeatOfVaporization name="Heat of vaporization" units="J/kmol">
  <eqno value="106" />
  <A value="8.36461E+07" />
  <B value="3.338812" />
  <C value="-9.831137" />
  <D value="11.8901" />
  <E value="-4.905709" />
  <Tmin units="K" value="146.95" />
  <Tmax units="K" value="536.85" />
  </HeatOfVaporization>
<SolidHeatCapacityCp name="Solid heat capacity" units="J/kmol/K">
  <eqno value="100" />
  <A value="-11319" />
  <B value="1041" />
  <C value="-3.5625" />
  <D value="-0.011478" />
  <E value="0.00010513" />
  <Tmin units="K" value="15" />
  <Tmax units="K" value="148.74" />
  </SolidHeatCapacityCp>
<LiquidHeatCapacityCp name="Liquid heat capacity" units="J/kmol/K">
  <eqno value="16" />
  <A value="100520" />
  <B value="125.3" />
  <C value="4.7194" />
  <D value="0.024513" />
  <E value="-0.000019669" />
  <Tmin units="K" value="146.95" />
  <Tmax units="K" value="400" />
  </LiquidHeatCapacityCp>
<IdealGasHeatCapacityCp name="Ideal gas heat capacity" units="J/kmol/K">
  <eqno value="16" />
  <A value="56681" />
  <B value="-627.22" />
  <C value="12.379" />
  <D value="0.00012228" />
  <E value="-5.0293E-08" />
  <Tmin units="K" value="150" />
  <Tmax units="K" value="1500" />
  </IdealGasHeatCapacityCp>
<SecondVirialCoefficient name="Second virial coefficient" units="m3/kmol">
  <eqno value="104" />
  <A value="0.037896" />
  <B value="-44.849" />
  <C value="-35.117" />
  <D value="410.57" />
  <E value="-27077" />
  <Tmin units="K" value="295.19" />
  <Tmax units="K" value="1500" />
  </SecondVirialCoefficient>
<LiquidViscosity name="Liquid viscosity" units="Pa.s">
  <eqno value="101" />
  <A value="-98.08798" />
  <B value="4904.749" />
  <C value="13.57131" />
  <D value="-0.0000219968" />
  <E value="2" />
  <Tmin units="K" value="146.95" />
  <Tmax units="K" value="523" />
  </LiquidViscosity>
<VaporViscosity name="Vapour viscosity" units="Pa.s">
  <eqno value="102" />
  <A value="7.9322E-07" />
  <B value="0.54936" />
  <C value="416.77" />
  <D value="-100.81" />
  <Tmin units="K" value="200" />
  <Tmax units="K" value="1000" />
  </VaporViscosity>
<LiquidThermalConductivity name="Liquid thermal conductivity" units="W/m/K">
  <eqno value="16" />
  <A value="0.076645" />
  <B value="-189.91" />
  <C value="-0.13475" />
  <D value="-0.0069283" />
  <E value="0.0000033645" />
  <Tmin units="K" value="164.06" />
  <Tmax units="K" value="380.35" />
  </LiquidThermalConductivity>
<VaporThermalConductivity name="Vapour thermal conductivity" units="W/m/K">
  <eqno value="102" />
  <A value="-453.4" />
  <B value="0.64532" />
  <C value="-2.843E+08" />
  <D value="-2.8865E+10" />
  <Tmin units="K" value="146.95" />
  <Tmax units="K" value="720.25" />
  </VaporThermalConductivity>
<SurfaceTension name="Surface tension" units="N/m">
  <eqno value="16" />
  <A value="-0.0044121" />
  <B value="-393.81" />
  <C value="0.44289" />
  <D value="-0.010936" />
  <E value="0.0000062593" />
  <Tmin units="K" value="283.15" />
  <Tmax units="K" value="370.35" />
  </SurfaceTension>
<RPPHeatCapacityCp name="Ideal gas heat capacity (RPP)" units="J/kmol/K">
  <eqno value="100" />
  <A value="39178" />
  <B value="54.585" />
  <C value="0.52464" />
  <D value="-0.00069351" />
  <E value="2.6739E-07" />
  <Tmin units="K" value="50" />
  <Tmax units="K" value="1000" />
  </RPPHeatCapacityCp>
<RelativeStaticPermittivity name="Relative static permittivity" units="_">
  <eqno value="120" />
  <A value="-17.3" />
  <B value="-10000" />
  <C value="-30" />
  <Tmin units="K" value="243" />
  <Tmax units="K" value="536" />
  </RelativeStaticPermittivity>
<AntoineVaporPressure name="Antoine" units="Pa">
  <eqno value="10" />
  <A value="22.11" />
  <B value="2968.4" />
  <C value="-89.944" />
  <Tmin units="K" value="323.15" />
  <Tmax units="K" value="482.63" />
  </AntoineVaporPressure>
<LiquidViscosityRPS name="Liquid viscosity (RPS)" units="Pa.s">
  <eqno value="13" />
  <A value="16.105" />
  <B value="-0.12454" />
  <C value="0.00016492" />
  <Tmin units="K" value="146.95" />
  <Tmax units="K" value="370.35" />
  </LiquidViscosityRPS>
<COSTALDVolume name="COSTLD characteristic volume (V*)" units="m3/kmol" value="0.23623" />
<DiameterLJ name="Lennard Jones diameter" units="m" value="4.71E-10" />
<EnergyLJ name="Lennard Jones energy" units="K" value="495" />
<RacketParameter name="Rackett parameter" units="_" value="0.2451" />
<FullerVolume name="Fuller et al. diffusion volume" units="_" value="72.28999" />
<MatthiasCopemanC2 name="Mathias-Copeman C2" units="_" value="2.198" />
<Parachor name="Parachor" units="kg0.25.m3/s0.5/kmol" value="0.0293982" />
<SpecificGravity name="Specific gravity" units="_" value="0.804" />
<Charge name="Charge" units="_" value="0" />
<CostaldAcentricFactor name="SRK acentric factor" units="_" value="0.62489" />
<WilsonVolume name="Wilson volume" units="m3/kmol" value="0.0749393" />
<UniquacR name="UNIQUAC r" units="_" value="2.78" />
<UniquacQ name="UNIQUAC q" units="_" value="2.51" />
<UniquacQP name="UNIQUAC q'" units="_" value="0.89" />
<ApiSrkS1 name="API-SRK s1" units="_" value="0.169684" />
<ApiSrkS2 name="API-SRK s2" units="_" value="1.188769" />
<MatthiasCopemanC3 name="Mathias-Copeman C3" units="_" value="-4.4989" />
<ChaoSeaderAcentricFactor name="Chao-Seader acentric factor" units="_" value="0.623" />
<ChaoSeaderSolubilityParameter name="Chao-Seader solubility parameter" units="J0.5/m1.5" value="24557.3" />
<ChaoSeaderLiquidVolume name="Chao-Seader liquid volume" units="m3/kmol" value="0.0749393" />
<UnifacVLE name="UNIFAC">
  <group id="1" value="1" />
  <group id="2" value="2" />
  <group id="15" value="1" />
  </UnifacVLE>
<UnifacLLE name="UNIFAC-LLE">
  <group id="15" value="1" />
  </UnifacLLE>
<Asog name="ASOG">
  <group id="1" value="1" />
  <group id="2" value="2" />
  <group id="15" value="1" />
  </Asog>
<GCmethod name="PPR78">
  <group id="1" value="1" />
  <group id="2" value="2" />
  <group id="41" value="1" />
  </GCmethod>
<Umr name="UMR">
  <group id="1" value="1" />
  <group id="2" value="2" />
  <group id="15" value="1" />
  </Umr>
<ModifiedUnifac name="Modified UNIFAC">
  <group id="1" value="1" />
  <group id="2" value="2" />
  <group id="14" value="1" />
  </ModifiedUnifac>
<CAS name="CAS number" value="71-23-8" />
<Smiles name="SMILES" value="CCCO" />
</compound>

