<compound>
<LibraryIndex name="Index" value="1142" />
<CompoundID name="Name" value="1-tetradecanol" />
<StructureFormula name="Structure" value="CH3(CH2)13OH" />
<Family name="Family" value="27" />
<CriticalTemperature name="Critical temperature" units="K" value="738.7" />
<CriticalPressure name="Critical pressure" units="Pa" value="1680000" />
<CriticalVolume name="Critical volume" units="m3/kmol" value="0.826" />
<CriticalCompressibility name="Critical compressibility factor" units="_" value="0.253" />
<NormalBoilingPointTemperature name="Normal boiling point" units="K" value="564" />
<NormalMeltingPointTemperature name="Melting point" units="K" value="310.75" />
<TriplePointTemperature name="Triple point temperature" units="K" value="310.65" />
<TriplePointPressure name="Triple point pressure" units="Pa" value="0.0916" />
<MolecularWeight name="Molecular weight" units="kg/kmol" value="214.387" />
<LiquidVolumeAtNormalBoilingPoint name="Liquid molar volume at normal boiling point" units="m3/kmol" value="0.2606" />
<AcentricityFactor name="Acentric factor" units="_" value="0.716811" />
<RadiusOfGyration name="Radius of gyration" units="m" value="6.73E-10" />
<SolubilityParameter name="Solubility parameter" units="J0.5/m1.5" value="18950" />
<DipoleMoment name="Dipole moment" units="Coulomb.m" value="5.34702E-30" />
<VanDerWaalsVolume name="Van der Waals volume" units="m3/kmol" value="0.1547" />
<VanDerWaalsArea name="Van der Waals area" units="m2/kmol" value="2.113E+09" />
<HeatOfFormation name="IG heat of formation" units="J/kmol" value="-4.811E+08" />
<GibbsEnergyOfFormation name="IG Gibbs energy of formation" units="J/kmol" value="-6.69E+07" />
<AbsEntropy name="IG absolute entropy" units="J/kmol/K" value="751780" />
<HeatOfFusionAtMeltingPoint name="Heat of fusion at melting point" units="J/kmol" value="4.95E+07" />
<HeatOfCombustion name="Standard net heat of combustion LHV" units="J/kmol" value="-8.5075E+09" />
<SolidDensity name="Solid density" units="kmol/m3">
  <eqno value="100" />
  <A value="4.4513" />
  <B value="0" />
  <C value="0" />
  <D value="0" />
  <E value="0" />
  <Tmin units="K" value="294" />
  <Tmax units="K" value="298.15" />
  </SolidDensity>
<LiquidDensity name="Liquid density" units="kmol/m3">
  <eqno value="105" />
  <A value="0.24302" />
  <B value="0.22674" />
  <C value="745.3" />
  <D value="0.28091" />
  <Tmin units="K" value="310.65" />
  <Tmax units="K" value="745.3" />
  </LiquidDensity>
<VaporPressure name="Vapour pressure" units="Pa">
  <eqno value="101" />
  <A value="180.85" />
  <B value="-18318" />
  <C value="-21.656" />
  <D value="7.5637E-18" />
  <E value="6" />
  <Tmin units="K" value="310.65" />
  <Tmax units="K" value="745.3" />
  </VaporPressure>
<HeatOfVaporization name="Heat of vaporization" units="J/kmol">
  <eqno value="106" />
  <A value="1.0167E+08" />
  <B value="-1.1665" />
  <C value="4.167" />
  <D value="-2.6922" />
  <E value="0" />
  <Tmin units="K" value="310.65" />
  <Tmax units="K" value="745.3" />
  </HeatOfVaporization>
<SolidHeatCapacityCp name="Solid heat capacity" units="J/kmol/K">
  <eqno value="102" />
  <A value="5476.9" />
  <B value="0.73578" />
  <C value="0" />
  <D value="0" />
  <Tmin units="K" value="50" />
  <Tmax units="K" value="307.15" />
  </SolidHeatCapacityCp>
<LiquidHeatCapacityCp name="Liquid heat capacity" units="J/kmol/K">
  <eqno value="100" />
  <A value="-4404100" />
  <B value="37646" />
  <C value="-103.06" />
  <D value="0.12078" />
  <E value="-0.000049723" />
  <Tmin units="K" value="324" />
  <Tmax units="K" value="569" />
  </LiquidHeatCapacityCp>
<IdealGasHeatCapacityCp name="Ideal gas heat capacity" units="J/kmol/K">
  <eqno value="107" />
  <A value="233400" />
  <B value="727000" />
  <C value="1562.3" />
  <D value="542100" />
  <E value="723" />
  <Tmin units="K" value="298.15" />
  <Tmax units="K" value="1500" />
  </IdealGasHeatCapacityCp>
<SecondVirialCoefficient name="Second virial coefficient" units="m3/kmol">
  <eqno value="104" />
  <A value="0.6321" />
  <B value="-458.58" />
  <C value="-4.1555E+08" />
  <D value="-7.7062E+21" />
  <E value="1.6373E+23" />
  <Tmin units="K" value="373.65" />
  <Tmax units="K" value="1500" />
  </SecondVirialCoefficient>
<LiquidViscosity name="Liquid viscosity" units="Pa.s">
  <eqno value="101" />
  <A value="-82.452" />
  <B value="6809.2" />
  <C value="9.7979" />
  <D value="0" />
  <E value="0" />
  <Tmin units="K" value="310.65" />
  <Tmax units="K" value="569" />
  </LiquidViscosity>
<VaporViscosity name="Vapour viscosity" units="Pa.s">
  <eqno value="102" />
  <A value="2.2784E-08" />
  <B value="0.93102" />
  <C value="0" />
  <D value="0" />
  <Tmin units="K" value="310.65" />
  <Tmax units="K" value="1000" />
  </VaporViscosity>
<LiquidThermalConductivity name="Liquid thermal conductivity" units="W/m/K">
  <eqno value="100" />
  <A value="0.2315" />
  <B value="-0.0001987" />
  <C value="0" />
  <D value="0" />
  <E value="0" />
  <Tmin units="K" value="310.65" />
  <Tmax units="K" value="569" />
  </LiquidThermalConductivity>
<VaporThermalConductivity name="Vapour thermal conductivity" units="W/m/K">
  <eqno value="102" />
  <A value="-3.004" />
  <B value="-0.034874" />
  <C value="-1766.3" />
  <D value="-2.8478E+07" />
  <Tmin units="K" value="568.8" />
  <Tmax units="K" value="1000" />
  </VaporThermalConductivity>
<SurfaceTension name="Surface tension" units="N/m">
  <eqno value="106" />
  <A value="0.05948" />
  <B value="1.301" />
  <C value="0" />
  <D value="0" />
  <E value="0" />
  <Tmin units="K" value="310.65" />
  <Tmax units="K" value="745.3" />
  </SurfaceTension>
<AntoineVaporPressure name="Antoine" units="Pa">
  <eqno value="10" />
  <A value="21.2" />
  <B value="4100" />
  <C value="-140" />
  <Tmin units="K" value="311" />
  <Tmax units="K" value="745" />
  </AntoineVaporPressure>
<FullerVolume name="Fuller et al. diffusion volume" units="_" value="298.01" />
<Parachor name="Parachor" units="kg0.25.m3/s0.5/kmol" value="0.107639" />
<SpecificGravity name="Specific gravity" units="_" value="0.833" />
<Charge name="Charge" units="_" value="0" />
<CostaldAcentricFactor name="SRK acentric factor" units="_" value="0.716811" />
<WilsonVolume name="Wilson volume" units="m3/kmol" value="0.2606" />
<UniquacR name="UNIQUAC r" units="_" value="10.6683" />
<UniquacQ name="UNIQUAC q" units="_" value="9.068" />
<ChaoSeaderAcentricFactor name="Chao-Seader acentric factor" units="_" value="0.716811" />
<ChaoSeaderSolubilityParameter name="Chao-Seader solubility parameter" units="J0.5/m1.5" value="18950" />
<ChaoSeaderLiquidVolume name="Chao-Seader liquid volume" units="m3/kmol" value="0.2606" />
<UnifacVLE name="UNIFAC">
  <group id="1" value="1" />
  <group id="2" value="13" />
  <group id="15" value="1" />
  </UnifacVLE>
<UnifacLLE name="UNIFAC-LLE">
  <group id="1" value="1" />
  <group id="2" value="13" />
  <group id="14" value="1" />
  </UnifacLLE>
<Asog name="ASOG">
  <group id="1" value="1" />
  <group id="2" value="13" />
  <group id="15" value="1" />
  </Asog>
<Umr name="UMR">
  <group id="1" value="1" />
  <group id="2" value="13" />
  <group id="15" value="1" />
  </Umr>
<ModifiedUnifac name="Modified UNIFAC">
  <group id="1" value="1" />
  <group id="2" value="3" />
  <group id="14" value="1" />
  </ModifiedUnifac>
<CAS name="CAS number" value="112-72-1" />
<Smiles name="SMILES" value="CCCCCCCCCCCCCCO" />
</compound>

