<compound>
<LibraryIndex name="Index" value="261" />
<CompoundID name="Name" value="1-undecene" />
<StructureFormula name="Structure" value="CH3(CH2)8CHCH2" />
<Family name="Family" value="9" />
<CriticalTemperature name="Critical temperature" units="K" value="637.8" />
<CriticalPressure name="Critical pressure" units="Pa" value="2044000" />
<CriticalVolume name="Critical volume" units="m3/kmol" value="0.657" />
<CriticalCompressibility name="Critical compressibility factor" units="_" value="0.253" />
<NormalBoilingPointTemperature name="Normal boiling point" units="K" value="465.82" />
<NormalMeltingPointTemperature name="Melting point" units="K" value="223.99" />
<TriplePointTemperature name="Triple point temperature" units="K" value="223.99" />
<TriplePointPressure name="Triple point pressure" units="Pa" value="0.0473" />
<MolecularWeight name="Molecular weight" units="kg/kmol" value="154.2924" />
<LiquidVolumeAtNormalBoilingPoint name="Liquid molar volume at normal boiling point" units="m3/kmol" value="0.2065" />
<AcentricityFactor name="Acentric factor" units="_" value="0.522466" />
<RadiusOfGyration name="Radius of gyration" units="m" value="5.485E-10" />
<SolubilityParameter name="Solubility parameter" units="J0.5/m1.5" value="15680" />
<DipoleMoment name="Dipole moment" units="Coulomb.m" value="1.8E-30" />
<VanDerWaalsVolume name="Van der Waals volume" units="m3/kmol" value="0.1159" />
<VanDerWaalsArea name="Van der Waals area" units="m2/kmol" value="1.586E+09" />
<HeatOfFormation name="IG heat of formation" units="J/kmol" value="-1.449E+08" />
<GibbsEnergyOfFormation name="IG Gibbs energy of formation" units="J/kmol" value="1.283E+08" />
<AbsEntropy name="IG absolute entropy" units="J/kmol/K" value="582180" />
<HeatOfFusionAtMeltingPoint name="Heat of fusion at melting point" units="J/kmol" value="1.699E+07" />
<MatthiasCopemanC1 name="Mathias-Copeman C1" units="_" value="1.3343" />
<HeatOfCombustion name="Standard net heat of combustion LHV" units="J/kmol" value="-6.7878E+09" />
<SolidDensity name="Solid density" units="kmol/m3">
  <eqno value="2" />
  <A value="6.5724" />
  <B value="-0.0032733" />
  <C value="0" />
  <D value="0" />
  <E value="0" />
  <Tmin units="K" value="89.6" />
  <Tmax units="K" value="223.99" />
  </SolidDensity>
<LiquidDensity name="Liquid density" units="kmol/m3">
  <eqno value="105" />
  <A value="0.38001" />
  <B value="0.24991" />
  <C value="637.8" />
  <D value="0.28571" />
  <Tmin units="K" value="223.99" />
  <Tmax units="K" value="637.8" />
  </LiquidDensity>
<VaporPressure name="Vapour pressure" units="Pa">
  <eqno value="101" />
  <A value="93.64799" />
  <B value="-9306.494" />
  <C value="-10.26144" />
  <D value="4.149832E-06" />
  <E value="2" />
  <Tmin units="K" value="223.99" />
  <Tmax units="K" value="637.9" />
  </VaporPressure>
<HeatOfVaporization name="Heat of vaporization" units="J/kmol">
  <eqno value="106" />
  <A value="2.3696E+07" />
  <B value="-6.3933" />
  <C value="18.084" />
  <D value="-19.033" />
  <E value="7.4719" />
  <Tmin units="K" value="223.99" />
  <Tmax units="K" value="616.02" />
  </HeatOfVaporization>
<SolidHeatCapacityCp name="Solid heat capacity" units="J/kmol/K">
  <eqno value="100" />
  <A value="-40578" />
  <B value="-2250300" />
  <C value="33508" />
  <D value="-165.17" />
  <E value="0.26994" />
  <Tmin units="K" value="217.3" />
  <Tmax units="K" value="226.8" />
  </SolidHeatCapacityCp>
<LiquidHeatCapacityCp name="Liquid heat capacity" units="J/kmol/K">
  <eqno value="16" />
  <A value="99868" />
  <B value="144.48" />
  <C value="10.69" />
  <D value="0.0042614" />
  <E value="-0.0000010791" />
  <Tmin units="K" value="223.99" />
  <Tmax units="K" value="591.88" />
  </LiquidHeatCapacityCp>
<IdealGasHeatCapacityCp name="Ideal gas heat capacity" units="J/kmol/K">
  <eqno value="16" />
  <A value="138670" />
  <B value="-549.63" />
  <C value="13.4" />
  <D value="0.00014861" />
  <E value="-5.2026E-08" />
  <Tmin units="K" value="273" />
  <Tmax units="K" value="1500" />
  </IdealGasHeatCapacityCp>
<SecondVirialCoefficient name="Second virial coefficient" units="m3/kmol">
  <eqno value="104" />
  <A value="0.46674" />
  <B value="-604.66" />
  <C value="-91.632" />
  <D value="-141600" />
  <E value="329750" />
  <Tmin units="K" value="318.9" />
  <Tmax units="K" value="1773" />
  </SecondVirialCoefficient>
<LiquidViscosity name="Liquid viscosity" units="Pa.s">
  <eqno value="101" />
  <A value="-49.01257" />
  <B value="2643.166" />
  <C value="5.957949" />
  <D value="-8.451873E-06" />
  <E value="2" />
  <Tmin units="K" value="223.99" />
  <Tmax units="K" value="523.15" />
  </LiquidViscosity>
<VaporViscosity name="Vapour viscosity" units="Pa.s">
  <eqno value="102" />
  <A value="5.0406E-08" />
  <B value="0.85093" />
  <C value="112.38" />
  <D value="-8900.1" />
  <Tmin units="K" value="223.99" />
  <Tmax units="K" value="1000" />
  </VaporViscosity>
<LiquidThermalConductivity name="Liquid thermal conductivity" units="W/m/K">
  <eqno value="16" />
  <A value="0.067847" />
  <B value="-250.41" />
  <C value="0.40201" />
  <D value="-0.0082828" />
  <E value="0.0000014058" />
  <Tmin units="K" value="223.99" />
  <Tmax units="K" value="465.82" />
  </LiquidThermalConductivity>
<VaporThermalConductivity name="Vapour thermal conductivity" units="W/m/K">
  <eqno value="102" />
  <A value="0.000018335" />
  <B value="1.3031" />
  <C value="709.58" />
  <D value="-2804.6" />
  <Tmin units="K" value="223.99" />
  <Tmax units="K" value="1000" />
  </VaporThermalConductivity>
<SurfaceTension name="Surface tension" units="N/m">
  <eqno value="16" />
  <A value="-0.0077397" />
  <B value="78.944" />
  <C value="-3.6355" />
  <D value="0.0014924" />
  <E value="-0.0000057786" />
  <Tmin units="K" value="223.99" />
  <Tmax units="K" value="616.02" />
  </SurfaceTension>
<RPPHeatCapacityCp name="Ideal gas heat capacity (RPP)" units="J/kmol/K">
  <eqno value="4" />
  <A value="-7374.7" />
  <B value="1015.1" />
  <C value="-0.57607" />
  <D value="0.00012723" />
  <Tmin units="K" value="273.16" />
  <Tmax units="K" value="1500" />
  </RPPHeatCapacityCp>
<AntoineVaporPressure name="Antoine" units="Pa">
  <eqno value="10" />
  <A value="21.051" />
  <B value="3677.5" />
  <C value="-79.724" />
  <Tmin units="K" value="383.57" />
  <Tmax units="K" value="573.15" />
  </AntoineVaporPressure>
<LiquidViscosityRPS name="Liquid viscosity (RPS)" units="Pa.s">
  <eqno value="12" />
  <A value="-3.5498" />
  <B value="-0.01112" />
  <Tmin units="K" value="223.99" />
  <Tmax units="K" value="523.15" />
  </LiquidViscosityRPS>
<COSTALDVolume name="COSTLD characteristic volume (V*)" units="m3/kmol" value="0.660788" />
<DiameterLJ name="Lennard Jones diameter" units="m" value="8.440253E-10" />
<EnergyLJ name="Lennard Jones energy" units="K" value="295.6865" />
<RacketParameter name="Rackett parameter" units="_" value="0.253" />
<FullerVolume name="Fuller et al. diffusion volume" units="_" value="225.72" />
<MatthiasCopemanC2 name="Mathias-Copeman C2" units="_" value="-0.793" />
<Parachor name="Parachor" units="kg0.25.m3/s0.5/kmol" value="0.080937" />
<SpecificGravity name="Specific gravity" units="_" value="0.754663" />
<Charge name="Charge" units="_" value="0" />
<CostaldAcentricFactor name="SRK acentric factor" units="_" value="0.522466" />
<WilsonVolume name="Wilson volume" units="m3/kmol" value="0.2065" />
<UniquacR name="UNIQUAC r" units="_" value="7.6417" />
<UniquacQ name="UNIQUAC q" units="_" value="6.344" />
<ApiSrkS2 name="API-SRK s2" units="_" value="0.010786" />
<MatthiasCopemanC3 name="Mathias-Copeman C3" units="_" value="1.6965" />
<ChaoSeaderAcentricFactor name="Chao-Seader acentric factor" units="_" value="0.522466" />
<ChaoSeaderSolubilityParameter name="Chao-Seader solubility parameter" units="J0.5/m1.5" value="15680" />
<ChaoSeaderLiquidVolume name="Chao-Seader liquid volume" units="m3/kmol" value="0.2065" />
<UnifacVLE name="UNIFAC">
  <group id="1" value="1" />
  <group id="2" value="8" />
  <group id="5" value="1" />
  </UnifacVLE>
<UnifacLLE name="UNIFAC-LLE">
  <group id="1" value="1" />
  <group id="2" value="8" />
  <group id="5" value="1" />
  </UnifacLLE>
<Asog name="ASOG">
  <group id="1" value="1" />
  <group id="2" value="8" />
  <group id="5" value="1" />
  </Asog>
<GCmethod name="PPR78">
  <group id="1" value="1" />
  <group id="2" value="9" />
  <group id="18" value="1" />
  </GCmethod>
<Umr name="UMR">
  <group id="1" value="1" />
  <group id="2" value="8" />
  <group id="5" value="1" />
  </Umr>
<ModifiedUnifac name="Modified UNIFAC">
  <group id="1" value="1" />
  <group id="2" value="8" />
  <group id="5" value="1" />
  </ModifiedUnifac>
<CAS name="CAS number" value="821-95-4" />
<Smiles name="SMILES" value="C=CCCCCCCCCC" />
</compound>

