<compound>
<LibraryIndex name="Index" value="41" />
<CompoundID name="Name" value="2,2,4-trimethylpentane" />
<StructureFormula name="Structure" value="(CH3)3CCH2CH(CH3)2" />
<Family name="Family" value="4" />
<CriticalTemperature name="Critical temperature" units="K" value="543.9" />
<CriticalPressure name="Critical pressure" units="Pa" value="2570000" />
<CriticalVolume name="Critical volume" units="m3/kmol" value="0.4697" />
<CriticalCompressibility name="Critical compressibility factor" units="_" value="0.266" />
<NormalBoilingPointTemperature name="Normal boiling point" units="K" value="372.39" />
<NormalMeltingPointTemperature name="Melting point" units="K" value="165.777" />
<TriplePointTemperature name="Triple point temperature" units="K" value="165.777" />
<TriplePointPressure name="Triple point pressure" units="Pa" value="0.0170695" />
<MolecularWeight name="Molecular weight" units="kg/kmol" value="114.2285" />
<LiquidVolumeAtNormalBoilingPoint name="Liquid molar volume at normal boiling point" units="m3/kmol" value="0.16607" />
<AcentricityFactor name="Acentric factor" units="_" value="0.304" />
<RadiusOfGyration name="Radius of gyration" units="m" value="4.091E-10" />
<SolubilityParameter name="Solubility parameter" units="J0.5/m1.5" value="14080" />
<DipoleMoment name="Dipole moment" units="Coulomb.m" value="0" />
<VanDerWaalsVolume name="Van der Waals volume" units="m3/kmol" value="0.08869" />
<VanDerWaalsArea name="Van der Waals area" units="m2/kmol" value="1.252E+09" />
<HeatOfFormation name="IG heat of formation" units="J/kmol" value="-2.2401E+08" />
<GibbsEnergyOfFormation name="IG Gibbs energy of formation" units="J/kmol" value="1.394E+07" />
<AbsEntropy name="IG absolute entropy" units="J/kmol/K" value="422960" />
<HeatOfFusionAtMeltingPoint name="Heat of fusion at melting point" units="J/kmol" value="9196000" />
<MatthiasCopemanC1 name="Mathias-Copeman C1" units="_" value="0.97675" />
<HeatOfCombustion name="Standard net heat of combustion LHV" units="J/kmol" value="-5.06528E+09" />
<SolidDensity name="Solid density" units="kmol/m3">
  <eqno value="2" />
  <A value="8.773" />
  <B value="-0.0058781" />
  <Tmin units="K" value="66.31" />
  <Tmax units="K" value="165.78" />
  </SolidDensity>
<LiquidDensity name="Liquid density" units="kmol/m3">
  <eqno value="105" />
  <A value="0.48523" />
  <B value="0.24924" />
  <C value="543.9" />
  <D value="0.25602" />
  <Tmin units="K" value="165.78" />
  <Tmax units="K" value="543.89" />
  </LiquidDensity>
<VaporPressure name="Vapour pressure" units="Pa">
  <eqno value="101" />
  <A value="83.71044" />
  <B value="-6701.601" />
  <C value="-9.312194" />
  <D value="6.808451E-06" />
  <E value="2" />
  <Tmin units="K" value="165.78" />
  <Tmax units="K" value="543.89" />
  </VaporPressure>
<HeatOfVaporization name="Heat of vaporization" units="J/kmol">
  <eqno value="106" />
  <A value="4.633E+07" />
  <B value="0.37451" />
  <C value="-0.066775" />
  <D value="-0.010135" />
  <E value="0.080832" />
  <Tmin units="K" value="165.78" />
  <Tmax units="K" value="543.8" />
  </HeatOfVaporization>
<SolidHeatCapacityCp name="Solid heat capacity" units="J/kmol/K">
  <eqno value="100" />
  <A value="3861.3" />
  <B value="1005.9" />
  <C value="-1.0592" />
  <D value="0.0042173" />
  <E value="-0.0000083422" />
  <Tmin units="K" value="10" />
  <Tmax units="K" value="165.79" />
  </SolidHeatCapacityCp>
<LiquidHeatCapacityCp name="Liquid heat capacity" units="J/kmol/K">
  <eqno value="16" />
  <A value="159470" />
  <B value="-380.54" />
  <C value="12.372" />
  <D value="-0.00044236" />
  <E value="0.0000034887" />
  <Tmin units="K" value="165.78" />
  <Tmax units="K" value="520" />
  </LiquidHeatCapacityCp>
<IdealGasHeatCapacityCp name="Ideal gas heat capacity" units="J/kmol/K">
  <eqno value="16" />
  <A value="84635" />
  <B value="-470.35" />
  <C value="13.011" />
  <D value="0.00041124" />
  <E value="-1.2926E-07" />
  <Tmin units="K" value="200" />
  <Tmax units="K" value="1500" />
  </IdealGasHeatCapacityCp>
<SecondVirialCoefficient name="Second virial coefficient" units="m3/kmol">
  <eqno value="104" />
  <A value="0.26688" />
  <B value="-321.67" />
  <C value="-47.437" />
  <D value="-5317.2" />
  <E value="7275.9" />
  <Tmin units="K" value="271.9" />
  <Tmax units="K" value="1771" />
  </SecondVirialCoefficient>
<LiquidViscosity name="Liquid viscosity" units="Pa.s">
  <eqno value="101" />
  <A value="-22.241" />
  <B value="1365.6" />
  <C value="1.8379" />
  <D value="-0.0000051189" />
  <E value="2" />
  <Tmin units="K" value="165.78" />
  <Tmax units="K" value="543.9" />
  </LiquidViscosity>
<VaporViscosity name="Vapour viscosity" units="Pa.s">
  <eqno value="102" />
  <A value="1.9933E-07" />
  <B value="0.67222" />
  <C value="163.02" />
  <D value="-5306.3" />
  <Tmin units="K" value="165.78" />
  <Tmax units="K" value="1000" />
  </VaporViscosity>
<LiquidThermalConductivity name="Liquid thermal conductivity" units="W/m/K">
  <eqno value="16" />
  <A value="0.044744" />
  <B value="-42.414" />
  <C value="-1.7361" />
  <D value="-0.0023225" />
  <E value="-0.0000040597" />
  <Tmin units="K" value="165.78" />
  <Tmax units="K" value="372.39" />
  </LiquidThermalConductivity>
<VaporThermalConductivity name="Vapour thermal conductivity" units="W/m/K">
  <eqno value="102" />
  <A value="0.000011401" />
  <B value="1.3632" />
  <C value="286.23" />
  <D value="6065.2" />
  <Tmin units="K" value="165.777" />
  <Tmax units="K" value="1000" />
  </VaporThermalConductivity>
<SurfaceTension name="Surface tension" units="N/m">
  <eqno value="16" />
  <A value="-0.0097592" />
  <B value="31.944" />
  <C value="-3.3103" />
  <D value="0.0003744" />
  <E value="-0.0000053994" />
  <Tmin units="K" value="165.78" />
  <Tmax units="K" value="543.8" />
  </SurfaceTension>
<RPPHeatCapacityCp name="Ideal gas heat capacity (RPP)" units="J/kmol/K">
  <eqno value="100" />
  <A value="3192.8" />
  <B value="640.7" />
  <C value="0.055291" />
  <D value="-0.0004627" />
  <E value="2.1776E-07" />
  <Tmin units="K" value="200" />
  <Tmax units="K" value="1000" />
  </RPPHeatCapacityCp>
<RelativeStaticPermittivity name="Relative static permittivity" units="_">
  <eqno value="120" />
  <A value="-2.197557" />
  <B value="-1450" />
  <C value="-8.7" />
  <Tmin units="K" value="274.15" />
  <Tmax units="K" value="444.15" />
  </RelativeStaticPermittivity>
<AntoineVaporPressure name="Antoine" units="Pa">
  <eqno value="10" />
  <A value="20.714" />
  <B value="2972" />
  <C value="-48.851" />
  <Tmin units="K" value="327.85" />
  <Tmax units="K" value="488.15" />
  </AntoineVaporPressure>
<LiquidViscosityRPS name="Liquid viscosity (RPS)" units="Pa.s">
  <eqno value="13" />
  <A value="-1.727" />
  <B value="-0.025461" />
  <C value="0.000019917" />
  <Tmin units="K" value="165.78" />
  <Tmax units="K" value="541.15" />
  </LiquidViscosityRPS>
<COSTALDVolume name="COSTLD characteristic volume (V*)" units="m3/kmol" value="0.47894" />
<DiameterLJ name="Lennard Jones diameter" units="m" value="7.106578E-10" />
<EnergyLJ name="Lennard Jones energy" units="K" value="301.9995" />
<FullerVolume name="Fuller et al. diffusion volume" units="_" value="168.78" />
<MatthiasCopemanC2 name="Mathias-Copeman C2" units="_" value="-0.38564" />
<Parachor name="Parachor" units="kg0.25.m3/s0.5/kmol" value="0.0608" />
<SpecificGravity name="Specific gravity" units="_" value="0.694955" />
<Charge name="Charge" units="_" value="0" />
<CostaldAcentricFactor name="SRK acentric factor" units="_" value="0.3045" />
<WilsonVolume name="Wilson volume" units="m3/kmol" value="0.165452" />
<UniquacR name="UNIQUAC r" units="_" value="5.85" />
<UniquacQ name="UNIQUAC q" units="_" value="4.94" />
<ApiSrkS2 name="API-SRK s2" units="_" value="-0.004045" />
<MatthiasCopemanC3 name="Mathias-Copeman C3" units="_" value="0.82187" />
<ChaoSeaderAcentricFactor name="Chao-Seader acentric factor" units="_" value="0.3033" />
<ChaoSeaderSolubilityParameter name="Chao-Seader solubility parameter" units="J0.5/m1.5" value="14050.5" />
<ChaoSeaderLiquidVolume name="Chao-Seader liquid volume" units="m3/kmol" value="0.165452" />
<UnifacVLE name="UNIFAC">
  <group id="1" value="5" />
  <group id="2" value="1" />
  <group id="3" value="1" />
  <group id="4" value="1" />
  </UnifacVLE>
<UnifacLLE name="UNIFAC-LLE">
  <group id="1" value="5" />
  <group id="2" value="1" />
  <group id="3" value="1" />
  <group id="4" value="1" />
  </UnifacLLE>
<Asog name="ASOG">
  <group id="1" value="5" />
  <group id="2" value="1" />
  <group id="3" value="1" />
  <group id="4" value="1" />
  </Asog>
<GCmethod name="PPR78">
  <group id="1" value="5" />
  <group id="2" value="1" />
  <group id="3" value="1" />
  <group id="4" value="1" />
  </GCmethod>
<Umr name="UMR">
  <group id="1" value="5" />
  <group id="2" value="1" />
  <group id="3" value="1" />
  <group id="4" value="1" />
  </Umr>
<ModifiedUnifac name="Modified UNIFAC">
  <group id="1" value="5" />
  <group id="2" value="1" />
  <group id="3" value="1" />
  <group id="4" value="1" />
  </ModifiedUnifac>
<CAS name="CAS number" value="540-84-1" />
<Smiles name="SMILES" value="CC(C)(C)CC(C)C" />
</compound>

