<compound>
<LibraryIndex name="Index" value="51" />
<CompoundID name="Name" value="2,2,3,3-tetramethylpentane" />
<StructureFormula name="Structure" value="CH3C(CH3)2C(CH3)2CH2CH3" />
<Family name="Family" value="4" />
<CriticalTemperature name="Critical temperature" units="K" value="607.6" />
<CriticalPressure name="Critical pressure" units="Pa" value="2740000" />
<CriticalVolume name="Critical volume" units="m3/kmol" value="0.478" />
<CriticalCompressibility name="Critical compressibility factor" units="_" value="0.269" />
<NormalBoilingPointTemperature name="Normal boiling point" units="K" value="413.44" />
<NormalMeltingPointTemperature name="Melting point" units="K" value="263.26" />
<TriplePointTemperature name="Triple point temperature" units="K" value="263.26" />
<TriplePointPressure name="Triple point pressure" units="Pa" value="133.839" />
<MolecularWeight name="Molecular weight" units="kg/kmol" value="128.2551" />
<LiquidVolumeAtNormalBoilingPoint name="Liquid molar volume at normal boiling point" units="m3/kmol" value="0.17034" />
<AcentricityFactor name="Acentric factor" units="_" value="0.304" />
<RadiusOfGyration name="Radius of gyration" units="m" value="4.1E-10" />
<SolubilityParameter name="Solubility parameter" units="J0.5/m1.5" value="15060" />
<DipoleMoment name="Dipole moment" units="Coulomb.m" value="0" />
<VanDerWaalsVolume name="Van der Waals volume" units="m3/kmol" value="0.09891" />
<VanDerWaalsArea name="Van der Waals area" units="m2/kmol" value="1.407E+09" />
<HeatOfFormation name="IG heat of formation" units="J/kmol" value="-2.36856E+08" />
<GibbsEnergyOfFormation name="IG Gibbs energy of formation" units="J/kmol" value="3.74E+07" />
<AbsEntropy name="IG absolute entropy" units="J/kmol/K" value="436600" />
<HeatOfFusionAtMeltingPoint name="Heat of fusion at melting point" units="J/kmol" value="2300000" />
<MatthiasCopemanC1 name="Mathias-Copeman C1" units="_" value="0.93709" />
<HeatOfCombustion name="Standard net heat of combustion LHV" units="J/kmol" value="-5.68149E+09" />
<SolidDensity name="Solid density" units="kmol/m3">
  <eqno value="2" />
  <A value="7.7007" />
  <B value="-0.0032505" />
  <C value="0" />
  <D value="0" />
  <E value="0" />
  <Tmin units="K" value="105.3" />
  <Tmax units="K" value="263.26" />
  </SolidDensity>
<LiquidDensity name="Liquid density" units="kmol/m3">
  <eqno value="105" />
  <A value="0.58952" />
  <B value="0.28267" />
  <C value="607.6" />
  <D value="0.29572" />
  <Tmin units="K" value="263.26" />
  <Tmax units="K" value="589.38" />
  </LiquidDensity>
<VaporPressure name="Vapour pressure" units="Pa">
  <eqno value="101" />
  <A value="139.0487" />
  <B value="-9535.451" />
  <C value="-17.78617" />
  <D value="0.0000157521" />
  <E value="2" />
  <Tmin units="K" value="263.26" />
  <Tmax units="K" value="607.5" />
  </VaporPressure>
<HeatOfVaporization name="Heat of vaporization" units="J/kmol">
  <eqno value="106" />
  <A value="5.3713E+07" />
  <B value="0.39899" />
  <C value="-0.032998" />
  <D value="0.06374" />
  <E value="-0.0535" />
  <Tmin units="K" value="263.26" />
  <Tmax units="K" value="607.5" />
  </HeatOfVaporization>
<SolidHeatCapacityCp name="Solid heat capacity" units="J/kmol/K">
  <eqno value="100" />
  <A value="-8132.5" />
  <B value="1274" />
  <C value="-2.5935" />
  <D value="0.014873" />
  <E value="-0.000051282" />
  <Tmin units="K" value="20" />
  <Tmax units="K" value="174.45" />
  </SolidHeatCapacityCp>
<LiquidHeatCapacityCp name="Liquid heat capacity" units="J/kmol/K">
  <eqno value="16" />
  <A value="116740" />
  <B value="-86.104" />
  <C value="11.13" />
  <D value="0.0046308" />
  <E value="-0.000003068" />
  <Tmin units="K" value="263.4" />
  <Tmax units="K" value="400" />
  </LiquidHeatCapacityCp>
<IdealGasHeatCapacityCp name="Ideal gas heat capacity" units="J/kmol/K">
  <eqno value="16" />
  <A value="55048" />
  <B value="-357.31" />
  <C value="13.013" />
  <D value="0.00055209" />
  <E value="-1.6211E-07" />
  <Tmin units="K" value="200" />
  <Tmax units="K" value="1500" />
  </IdealGasHeatCapacityCp>
<SecondVirialCoefficient name="Second virial coefficient" units="m3/kmol">
  <eqno value="104" />
  <A value="0.30532" />
  <B value="-388.69" />
  <C value="-73.537" />
  <D value="-25110" />
  <E value="47691" />
  <Tmin units="K" value="303.75" />
  <Tmax units="K" value="1949.43" />
  </SecondVirialCoefficient>
<LiquidViscosity name="Liquid viscosity" units="Pa.s">
  <eqno value="101" />
  <A value="-9.7597" />
  <B value="1441.2" />
  <C value="-0.37772" />
  <D value="-0.000001226" />
  <E value="2" />
  <Tmin units="K" value="263.26" />
  <Tmax units="K" value="546.3" />
  </LiquidViscosity>
<VaporViscosity name="Vapour viscosity" units="Pa.s">
  <eqno value="102" />
  <A value="8.1934E-07" />
  <B value="0.48521" />
  <C value="356.82" />
  <D value="-1384.3" />
  <Tmin units="K" value="263.26" />
  <Tmax units="K" value="1000" />
  </VaporViscosity>
<LiquidThermalConductivity name="Liquid thermal conductivity" units="W/m/K">
  <eqno value="16" />
  <A value="-0.0045701" />
  <B value="-120.11" />
  <C value="-0.775" />
  <D value="-0.0036256" />
  <E value="9.650699E-07" />
  <Tmin units="K" value="263.26" />
  <Tmax units="K" value="413.44" />
  </LiquidThermalConductivity>
<VaporThermalConductivity name="Vapour thermal conductivity" units="W/m/K">
  <eqno value="102" />
  <A value="0.000014917" />
  <B value="1.2661" />
  <C value="-211.67" />
  <D value="155870" />
  <Tmin units="K" value="263.26" />
  <Tmax units="K" value="1000" />
  </VaporThermalConductivity>
<SurfaceTension name="Surface tension" units="N/m">
  <eqno value="16" />
  <A value="-0.067505" />
  <B value="-40.086" />
  <C value="-1.7701" />
  <D value="-0.0019128" />
  <E value="8.1111E-07" />
  <Tmin units="K" value="263.26" />
  <Tmax units="K" value="607.5" />
  </SurfaceTension>
<RPPHeatCapacityCp name="Ideal gas heat capacity (RPP)" units="J/kmol/K">
  <eqno value="100" />
  <A value="-50045" />
  <B value="1093.4" />
  <C value="-0.82446" />
  <D value="0.00037581" />
  <E value="-7.7657E-08" />
  <Tmin units="K" value="200" />
  <Tmax units="K" value="1000" />
  </RPPHeatCapacityCp>
<RelativeStaticPermittivity name="Relative static permittivity" units="_">
  <eqno value="120" />
  <A value="-2.197557" />
  <B value="-1450" />
  <C value="-8.7" />
  <Tmin units="K" value="274.15" />
  <Tmax units="K" value="444.15" />
  </RelativeStaticPermittivity>
<AntoineVaporPressure name="Antoine" units="Pa">
  <eqno value="10" />
  <A value="20.567" />
  <B value="3186.4" />
  <C value="-60.994" />
  <Tmin units="K" value="368.1" />
  <Tmax units="K" value="535.03" />
  </AntoineVaporPressure>
<LiquidViscosityRPS name="Liquid viscosity (RPS)" units="Pa.s">
  <eqno value="12" />
  <A value="-3.3449" />
  <B value="-0.012915" />
  <Tmin units="K" value="263.26" />
  <Tmax units="K" value="486" />
  </LiquidViscosityRPS>
<COSTALDVolume name="COSTLD characteristic volume (V*)" units="m3/kmol" value="0.550036" />
<DiameterLJ name="Lennard Jones diameter" units="m" value="7.052637E-10" />
<EnergyLJ name="Lennard Jones energy" units="K" value="351.2684" />
<RacketParameter name="Rackett parameter" units="_" value="0.269" />
<FullerVolume name="Fuller et al. diffusion volume" units="_" value="189.3" />
<MatthiasCopemanC2 name="Mathias-Copeman C2" units="_" value="0" />
<Parachor name="Parachor" units="kg0.25.m3/s0.5/kmol" value="0.0661158" />
<SpecificGravity name="Specific gravity" units="_" value="0.760702" />
<Charge name="Charge" units="_" value="0" />
<CostaldAcentricFactor name="SRK acentric factor" units="_" value="0.304" />
<WilsonVolume name="Wilson volume" units="m3/kmol" value="0.17034" />
<UniquacR name="UNIQUAC r" units="_" value="6.52" />
<UniquacQ name="UNIQUAC q" units="_" value="5.628" />
<ApiSrkS2 name="API-SRK s2" units="_" value="0.002328" />
<MatthiasCopemanC3 name="Mathias-Copeman C3" units="_" value="0" />
<ChaoSeaderAcentricFactor name="Chao-Seader acentric factor" units="_" value="0.304" />
<ChaoSeaderSolubilityParameter name="Chao-Seader solubility parameter" units="J0.5/m1.5" value="15060" />
<ChaoSeaderLiquidVolume name="Chao-Seader liquid volume" units="m3/kmol" value="0.17034" />
<UnifacVLE name="UNIFAC">
  <group id="1" value="6" />
  <group id="2" value="1" />
  <group id="4" value="2" />
  </UnifacVLE>
<UnifacLLE name="UNIFAC-LLE">
  <group id="1" value="6" />
  <group id="2" value="1" />
  <group id="4" value="2" />
  </UnifacLLE>
<Asog name="ASOG">
  <group id="1" value="6" />
  <group id="2" value="1" />
  <group id="4" value="2" />
  </Asog>
<GCmethod name="PPR78">
  <group id="1" value="6" />
  <group id="2" value="1" />
  <group id="4" value="2" />
  </GCmethod>
<Umr name="UMR">
  <group id="1" value="6" />
  <group id="2" value="1" />
  <group id="4" value="2" />
  </Umr>
<ModifiedUnifac name="Modified UNIFAC">
  <group id="1" value="6" />
  <group id="2" value="1" />
  <group id="4" value="2" />
  </ModifiedUnifac>
<CAS name="CAS number" value="7154-79-2" />
<Smiles name="SMILES" value="CC(C)(C)C(C)(C)CC" />
</compound>

