<compound>
<LibraryIndex name="Index" value="53" />
<CompoundID name="Name" value="2,2,4,4-tetramethylpentane" />
<StructureFormula name="Structure" value="CH3C(CH3)2CH2C(CH3)2CH3" />
<Family name="Family" value="4" />
<CriticalTemperature name="Critical temperature" units="K" value="571.35" />
<CriticalPressure name="Critical pressure" units="Pa" value="2360870" />
<CriticalVolume name="Critical volume" units="m3/kmol" value="0.504" />
<CriticalCompressibility name="Critical compressibility factor" units="_" value="0.263" />
<NormalBoilingPointTemperature name="Normal boiling point" units="K" value="395.44" />
<NormalMeltingPointTemperature name="Melting point" units="K" value="206.95" />
<TriplePointTemperature name="Triple point temperature" units="K" value="206.95" />
<TriplePointPressure name="Triple point pressure" units="Pa" value="1.83952" />
<MolecularWeight name="Molecular weight" units="kg/kmol" value="128.2551" />
<LiquidVolumeAtNormalBoilingPoint name="Liquid molar volume at normal boiling point" units="m3/kmol" value="0.17923" />
<AcentricityFactor name="Acentric factor" units="_" value="0.313609" />
<RadiusOfGyration name="Radius of gyration" units="m" value="4.86E-10" />
<SolubilityParameter name="Solubility parameter" units="J0.5/m1.5" value="14150" />
<DipoleMoment name="Dipole moment" units="Coulomb.m" value="0" />
<VanDerWaalsVolume name="Van der Waals volume" units="m3/kmol" value="0.09891" />
<VanDerWaalsArea name="Van der Waals area" units="m2/kmol" value="1.407E+09" />
<HeatOfFormation name="IG heat of formation" units="J/kmol" value="-2.41375E+08" />
<GibbsEnergyOfFormation name="IG Gibbs energy of formation" units="J/kmol" value="3.40159E+07" />
<AbsEntropy name="IG absolute entropy" units="J/kmol/K" value="431496" />
<HeatOfFusionAtMeltingPoint name="Heat of fusion at melting point" units="J/kmol" value="9700000" />
<MatthiasCopemanC1 name="Mathias-Copeman C1" units="_" value="0.95089" />
<HeatOfCombustion name="Standard net heat of combustion LHV" units="J/kmol" value="-5.67978E+09" />
<SolidDensity name="Solid density" units="kmol/m3">
  <eqno value="2" />
  <A value="7.7417" />
  <B value="-0.0041681" />
  <C value="0" />
  <D value="0" />
  <E value="0" />
  <Tmin units="K" value="82.78" />
  <Tmax units="K" value="206.95" />
  </SolidDensity>
<LiquidDensity name="Liquid density" units="kmol/m3">
  <eqno value="105" />
  <A value="0.47711" />
  <B value="0.25904" />
  <C value="574.61" />
  <D value="0.26647" />
  <Tmin units="K" value="206.95" />
  <Tmax units="K" value="574.6" />
  </LiquidDensity>
<VaporPressure name="Vapour pressure" units="Pa">
  <eqno value="101" />
  <A value="136.5701" />
  <B value="-9035.55" />
  <C value="-17.5287" />
  <D value="0.0000167892" />
  <E value="2" />
  <Tmin units="K" value="206.95" />
  <Tmax units="K" value="574.6" />
  </VaporPressure>
<HeatOfVaporization name="Heat of vaporization" units="J/kmol">
  <eqno value="106" />
  <A value="5.75823E+07" />
  <B value="1.154086" />
  <C value="-2.055247" />
  <D value="2.209851" />
  <E value="-0.923166" />
  <Tmin units="K" value="206.95" />
  <Tmax units="K" value="555.25" />
  </HeatOfVaporization>
<SolidHeatCapacityCp name="Solid heat capacity" units="J/kmol/K">
  <eqno value="100" />
  <A value="-3662.8" />
  <B value="1207.7" />
  <C value="-1.0811" />
  <D value="-0.016528" />
  <E value="0.000094782" />
  <Tmin units="K" value="18" />
  <Tmax units="K" value="206.61" />
  </SolidHeatCapacityCp>
<LiquidHeatCapacityCp name="Liquid heat capacity" units="J/kmol/K">
  <eqno value="16" />
  <A value="119280" />
  <B value="88.665" />
  <C value="9.3063" />
  <D value="0.010453" />
  <E value="-0.0000091934" />
  <Tmin units="K" value="206.61" />
  <Tmax units="K" value="380" />
  </LiquidHeatCapacityCp>
<IdealGasHeatCapacityCp name="Ideal gas heat capacity" units="J/kmol/K">
  <eqno value="16" />
  <A value="122670" />
  <B value="-599.26" />
  <C value="13.402" />
  <D value="0.000099085" />
  <E value="-1.741E-08" />
  <Tmin units="K" value="150" />
  <Tmax units="K" value="1500" />
  </IdealGasHeatCapacityCp>
<SecondVirialCoefficient name="Second virial coefficient" units="m3/kmol">
  <eqno value="104" />
  <A value="0.30694" />
  <B value="-369.96" />
  <C value="-60.863" />
  <D value="-20132" />
  <E value="40675" />
  <Tmin units="K" value="285.68" />
  <Tmax units="K" value="1827.68" />
  </SecondVirialCoefficient>
<LiquidViscosity name="Liquid viscosity" units="Pa.s">
  <eqno value="101" />
  <A value="-10.148" />
  <B value="1468.8" />
  <C value="-0.33327" />
  <D value="-0.0000013179" />
  <E value="2" />
  <Tmin units="K" value="206.95" />
  <Tmax units="K" value="546.3" />
  </LiquidViscosity>
<VaporViscosity name="Vapour viscosity" units="Pa.s">
  <eqno value="102" />
  <A value="5.8808E-07" />
  <B value="0.52306" />
  <C value="289.62" />
  <D value="-2721.1" />
  <Tmin units="K" value="206.95" />
  <Tmax units="K" value="1000" />
  </VaporViscosity>
<LiquidThermalConductivity name="Liquid thermal conductivity" units="W/m/K">
  <eqno value="16" />
  <A value="-0.038909" />
  <B value="-2.6455" />
  <C value="-1.623" />
  <D value="-0.0006558" />
  <E value="-0.0000013711" />
  <Tmin units="K" value="206.95" />
  <Tmax units="K" value="395.44" />
  </LiquidThermalConductivity>
<VaporThermalConductivity name="Vapour thermal conductivity" units="W/m/K">
  <eqno value="102" />
  <A value="0.000015165" />
  <B value="1.2696" />
  <C value="-148.49" />
  <D value="133700" />
  <Tmin units="K" value="206.95" />
  <Tmax units="K" value="1000" />
  </VaporThermalConductivity>
<SurfaceTension name="Surface tension" units="N/m">
  <eqno value="16" />
  <A value="-0.0065574" />
  <B value="70.429" />
  <C value="-3.7855" />
  <D value="0.0020966" />
  <E value="-0.0000079684" />
  <Tmin units="K" value="206.95" />
  <Tmax units="K" value="555.25" />
  </SurfaceTension>
<RPPHeatCapacityCp name="Ideal gas heat capacity (RPP)" units="J/kmol/K">
  <eqno value="4" />
  <A value="8603.1" />
  <B value="793.17" />
  <C value="-0.33044" />
  <D value="0.000047239" />
  <Tmin units="K" value="150" />
  <Tmax units="K" value="1500" />
  </RPPHeatCapacityCp>
<RelativeStaticPermittivity name="Relative static permittivity" units="_">
  <eqno value="120" />
  <A value="-2.197557" />
  <B value="-1450" />
  <C value="-8.7" />
  <Tmin units="K" value="274.15" />
  <Tmax units="K" value="444.15" />
  </RelativeStaticPermittivity>
<AntoineVaporPressure name="Antoine" units="Pa">
  <eqno value="10" />
  <A value="20.498" />
  <B value="3022.6" />
  <C value="-58.531" />
  <Tmin units="K" value="343.77" />
  <Tmax units="K" value="497.2" />
  </AntoineVaporPressure>
<LiquidViscosityRPS name="Liquid viscosity (RPS)" units="Pa.s">
  <eqno value="12" />
  <A value="-1.9999" />
  <B value="-0.016657" />
  <Tmin units="K" value="206.95" />
  <Tmax units="K" value="459.68" />
  </LiquidViscosityRPS>
<COSTALDVolume name="COSTLD characteristic volume (V*)" units="m3/kmol" value="0.550036" />
<DiameterLJ name="Lennard Jones diameter" units="m" value="7.375219E-10" />
<EnergyLJ name="Lennard Jones energy" units="K" value="304.5483" />
<RacketParameter name="Rackett parameter" units="_" value="0.263" />
<FullerVolume name="Fuller et al. diffusion volume" units="_" value="189.3" />
<MatthiasCopemanC2 name="Mathias-Copeman C2" units="_" value="0" />
<Parachor name="Parachor" units="kg0.25.m3/s0.5/kmol" value="0.0662001" />
<SpecificGravity name="Specific gravity" units="_" value="0.725823" />
<Charge name="Charge" units="_" value="0" />
<CostaldAcentricFactor name="SRK acentric factor" units="_" value="0.313609" />
<WilsonVolume name="Wilson volume" units="m3/kmol" value="0.17923" />
<UniquacR name="UNIQUAC r" units="_" value="6.52" />
<UniquacQ name="UNIQUAC q" units="_" value="5.628" />
<ApiSrkS2 name="API-SRK s2" units="_" value="-0.001878" />
<MatthiasCopemanC3 name="Mathias-Copeman C3" units="_" value="0" />
<ChaoSeaderAcentricFactor name="Chao-Seader acentric factor" units="_" value="0.313609" />
<ChaoSeaderSolubilityParameter name="Chao-Seader solubility parameter" units="J0.5/m1.5" value="14150" />
<ChaoSeaderLiquidVolume name="Chao-Seader liquid volume" units="m3/kmol" value="0.17923" />
<UnifacVLE name="UNIFAC">
  <group id="1" value="6" />
  <group id="2" value="1" />
  <group id="4" value="2" />
  </UnifacVLE>
<UnifacLLE name="UNIFAC-LLE">
  <group id="1" value="6" />
  <group id="2" value="1" />
  <group id="4" value="2" />
  </UnifacLLE>
<Asog name="ASOG">
  <group id="1" value="6" />
  <group id="2" value="1" />
  <group id="4" value="2" />
  </Asog>
<GCmethod name="PPR78">
  <group id="1" value="6" />
  <group id="2" value="1" />
  <group id="4" value="2" />
  </GCmethod>
<Umr name="UMR">
  <group id="1" value="6" />
  <group id="2" value="1" />
  <group id="4" value="2" />
  </Umr>
<ModifiedUnifac name="Modified UNIFAC">
  <group id="1" value="6" />
  <group id="2" value="1" />
  <group id="4" value="2" />
  </ModifiedUnifac>
<CAS name="CAS number" value="1070-87-7" />
<Smiles name="SMILES" value="CC(C)(C)CC(C)(C)C" />
</compound>

