<compound>
<LibraryIndex name="Index" value="72" />
<CompoundID name="Name" value="2,2-dimethyloctane" />
<StructureFormula name="Structure" value="CH3C(CH3)2(CH2)5CH3" />
<Family name="Family" value="3" />
<CriticalTemperature name="Critical temperature" units="K" value="602.4" />
<CriticalPressure name="Critical pressure" units="Pa" value="2110000" />
<CriticalVolume name="Critical volume" units="m3/kmol" value="0.5897" />
<CriticalCompressibility name="Critical compressibility factor" units="_" value="0.248" />
<NormalBoilingPointTemperature name="Normal boiling point" units="K" value="430.05" />
<MolecularWeight name="Molecular weight" units="kg/kmol" value="142.2817" />
<LiquidVolumeAtNormalBoilingPoint name="Liquid molar volume at normal boiling point" units="m3/kmol" value="0.197405" />
<AcentricityFactor name="Acentric factor" units="_" value="0.428759" />
<RadiusOfGyration name="Radius of gyration" units="m" value="5.223E-10" />
<SolubilityParameter name="Solubility parameter" units="J0.5/m1.5" value="14870" />
<DipoleMoment name="Dipole moment" units="Coulomb.m" value="0" />
<VanDerWaalsVolume name="Van der Waals volume" units="m3/kmol" value="0.10916" />
<VanDerWaalsArea name="Van der Waals area" units="m2/kmol" value="1.523E+09" />
<HeatOfFormation name="IG heat of formation" units="J/kmol" value="-2.67E+08" />
<GibbsEnergyOfFormation name="IG Gibbs energy of formation" units="J/kmol" value="2.6E+07" />
<AbsEntropy name="IG absolute entropy" units="J/kmol/K" value="511000" />
<HeatOfFusionAtMeltingPoint name="Heat of fusion at melting point" units="J/kmol" value="1.7E+07" />
<HeatOfCombustion name="Standard net heat of combustion LHV" units="J/kmol" value="-6.281E+09" />
<SolidDensity name="Solid density" units="kmol/m3">
  <eqno value="2" />
  <A value="6.35" />
  <B value="2.3419E-17" />
  <C value="0" />
  <D value="0" />
  <E value="0" />
  <Tmin units="K" value="0" />
  <Tmax units="K" value="9.5" />
  </SolidDensity>
<LiquidDensity name="Liquid density" units="kmol/m3">
  <eqno value="105" />
  <A value="0.27519" />
  <B value="0.20873" />
  <C value="602.4" />
  <D value="0.22241" />
  <Tmin units="K" value="225" />
  <Tmax units="K" value="602" />
  </LiquidDensity>
<VaporPressure name="Vapour pressure" units="Pa">
  <eqno value="101" />
  <A value="128.2162" />
  <B value="-9736.787" />
  <C value="-15.87938" />
  <D value="0.0000121145" />
  <E value="2" />
  <Tmin units="K" value="225" />
  <Tmax units="K" value="602" />
  </VaporPressure>
<HeatOfVaporization name="Heat of vaporization" units="J/kmol">
  <eqno value="106" />
  <A value="6.2139E+07" />
  <B value="0.81955" />
  <C value="-1.4728" />
  <D value="1.7846" />
  <E value="-0.74179" />
  <Tmin units="K" value="225" />
  <Tmax units="K" value="602" />
  </HeatOfVaporization>
<SolidHeatCapacityCp name="Solid heat capacity" units="J/kmol/K">
  <eqno value="1" />
  <A value="275220" />
  <Tmin units="K" value="0" />
  <Tmax units="K" value="602.4" />
  </SolidHeatCapacityCp>
<LiquidHeatCapacityCp name="Liquid heat capacity" units="J/kmol/K">
  <eqno value="16" />
  <A value="130180" />
  <B value="214" />
  <C value="8.9638" />
  <D value="0.010626" />
  <E value="-0.0000085091" />
  <Tmin units="K" value="225" />
  <Tmax units="K" value="425" />
  </LiquidHeatCapacityCp>
<IdealGasHeatCapacityCp name="Ideal gas heat capacity" units="J/kmol/K">
  <eqno value="16" />
  <A value="133300" />
  <B value="-582.81" />
  <C value="13.49" />
  <D value="0.000049115" />
  <E value="-1.5637E-08" />
  <Tmin units="K" value="150" />
  <Tmax units="K" value="1500" />
  </IdealGasHeatCapacityCp>
<SecondVirialCoefficient name="Second virial coefficient" units="m3/kmol">
  <eqno value="104" />
  <A value="0.33556" />
  <B value="-413.18" />
  <C value="-91.248" />
  <D value="-27355" />
  <E value="45691" />
  <Tmin units="K" value="301" />
  <Tmax units="K" value="1500" />
  </SecondVirialCoefficient>
<LiquidViscosity name="Liquid viscosity" units="Pa.s">
  <eqno value="101" />
  <A value="-12.132" />
  <B value="1337.2" />
  <C value="0.10372" />
  <D value="-1.6576E-07" />
  <E value="2" />
  <Tmin units="K" value="225" />
  <Tmax units="K" value="481.92" />
  </LiquidViscosity>
<VaporViscosity name="Vapour viscosity" units="Pa.s">
  <eqno value="102" />
  <A value="6.6483E-07" />
  <B value="0.48953" />
  <C value="292.37" />
  <D value="276.07" />
  <Tmin units="K" value="225" />
  <Tmax units="K" value="1000" />
  </VaporViscosity>
<LiquidThermalConductivity name="Liquid thermal conductivity" units="W/m/K">
  <eqno value="16" />
  <A value="-0.054905" />
  <B value="-9.2849" />
  <C value="-1.513" />
  <D value="-0.00077582" />
  <E value="-8.6839E-07" />
  <Tmin units="K" value="225" />
  <Tmax units="K" value="430.05" />
  </LiquidThermalConductivity>
<VaporThermalConductivity name="Vapour thermal conductivity" units="W/m/K">
  <eqno value="102" />
  <A value="0.000023992" />
  <B value="1.186" />
  <C value="-157.89" />
  <D value="154490" />
  <Tmin units="K" value="430.05" />
  <Tmax units="K" value="1000" />
  </VaporThermalConductivity>
<SurfaceTension name="Surface tension" units="N/m">
  <eqno value="16" />
  <A value="-0.0081141" />
  <B value="109.26" />
  <C value="-3.9929" />
  <D value="0.0023215" />
  <E value="-0.0000066762" />
  <Tmin units="K" value="225" />
  <Tmax units="K" value="602" />
  </SurfaceTension>
<RPPHeatCapacityCp name="Ideal gas heat capacity (RPP)" units="J/kmol/K">
  <eqno value="4" />
  <A value="7717.8" />
  <B value="904.09" />
  <C value="-0.43608" />
  <D value="0.00007608" />
  <Tmin units="K" value="150" />
  <Tmax units="K" value="1500" />
  </RPPHeatCapacityCp>
<AntoineVaporPressure name="Antoine" units="Pa">
  <eqno value="10" />
  <A value="21.447" />
  <B value="3766.1" />
  <C value="-50.805" />
  <Tmin units="K" value="225" />
  <Tmax units="K" value="602" />
  </AntoineVaporPressure>
<LiquidViscosityRPS name="Liquid viscosity (RPS)" units="Pa.s">
  <eqno value="12" />
  <A value="-2.9662" />
  <B value="-0.013254" />
  <Tmin units="K" value="225" />
  <Tmax units="K" value="430.05" />
  </LiquidViscosityRPS>
<COSTALDVolume name="COSTLD characteristic volume (V*)" units="m3/kmol" value="0.615981" />
<DiameterLJ name="Lennard Jones diameter" units="m" value="8.338988E-10" />
<EnergyLJ name="Lennard Jones energy" units="K" value="259.9107" />
<RacketParameter name="Rackett parameter" units="_" value="0.248" />
<FullerVolume name="Fuller et al. diffusion volume" units="_" value="209.82" />
<Parachor name="Parachor" units="kg0.25.m3/s0.5/kmol" value="0.0749304" />
<SpecificGravity name="Specific gravity" units="_" value="0.728014" />
<Charge name="Charge" units="_" value="0" />
<CostaldAcentricFactor name="SRK acentric factor" units="_" value="0.428759" />
<WilsonVolume name="Wilson volume" units="m3/kmol" value="0.197405" />
<UniquacR name="UNIQUAC r" units="_" value="7.1959" />
<UniquacQ name="UNIQUAC q" units="_" value="6.092" />
<ChaoSeaderAcentricFactor name="Chao-Seader acentric factor" units="_" value="0.428759" />
<ChaoSeaderSolubilityParameter name="Chao-Seader solubility parameter" units="J0.5/m1.5" value="14870" />
<ChaoSeaderLiquidVolume name="Chao-Seader liquid volume" units="m3/kmol" value="0.197405" />
<UnifacVLE name="UNIFAC">
  <group id="1" value="4" />
  <group id="2" value="5" />
  <group id="4" value="1" />
  </UnifacVLE>
<UnifacLLE name="UNIFAC-LLE">
  <group id="1" value="4" />
  <group id="2" value="5" />
  <group id="4" value="1" />
  </UnifacLLE>
<Asog name="ASOG">
  <group id="1" value="4" />
  <group id="2" value="5" />
  <group id="4" value="1" />
  </Asog>
<GCmethod name="PPR78">
  <group id="1" value="4" />
  <group id="2" value="5" />
  <group id="4" value="1" />
  </GCmethod>
<Umr name="UMR">
  <group id="1" value="4" />
  <group id="2" value="5" />
  <group id="4" value="1" />
  </Umr>
<ModifiedUnifac name="Modified UNIFAC">
  <group id="1" value="4" />
  <group id="2" value="5" />
  <group id="4" value="1" />
  </ModifiedUnifac>
<CAS name="CAS number" value="15869-87-1" />
<Smiles name="SMILES" value="CC(C)(C)CCCCCC" />
</compound>

