<compound>
<LibraryIndex name="Index" value="21" />
<CompoundID name="Name" value="2,2-dimethylpentane" />
<StructureFormula name="Structure" value="CH3C(CH3)2CH2CH2CH3" />
<Family name="Family" value="4" />
<CriticalTemperature name="Critical temperature" units="K" value="520.4" />
<CriticalPressure name="Critical pressure" units="Pa" value="2770000" />
<CriticalVolume name="Critical volume" units="m3/kmol" value="0.4158" />
<CriticalCompressibility name="Critical compressibility factor" units="_" value="0.266" />
<NormalBoilingPointTemperature name="Normal boiling point" units="K" value="352.32" />
<NormalMeltingPointTemperature name="Melting point" units="K" value="149.34" />
<TriplePointTemperature name="Triple point temperature" units="K" value="149.34" />
<TriplePointPressure name="Triple point pressure" units="Pa" value="0.00317517" />
<MolecularWeight name="Molecular weight" units="kg/kmol" value="100.202" />
<LiquidVolumeAtNormalBoilingPoint name="Liquid molar volume at normal boiling point" units="m3/kmol" value="0.14967" />
<AcentricityFactor name="Acentric factor" units="_" value="0.287" />
<RadiusOfGyration name="Radius of gyration" units="m" value="3.922E-10" />
<SolubilityParameter name="Solubility parameter" units="J0.5/m1.5" value="14260" />
<DipoleMoment name="Dipole moment" units="Coulomb.m" value="0" />
<VanDerWaalsVolume name="Van der Waals volume" units="m3/kmol" value="0.07847" />
<VanDerWaalsArea name="Van der Waals area" units="m2/kmol" value="1.118E+09" />
<HeatOfFormation name="IG heat of formation" units="J/kmol" value="-2.06146E+08" />
<GibbsEnergyOfFormation name="IG Gibbs energy of formation" units="J/kmol" value="550000" />
<AbsEntropy name="IG absolute entropy" units="J/kmol/K" value="392580" />
<HeatOfFusionAtMeltingPoint name="Heat of fusion at melting point" units="J/kmol" value="5824000" />
<MatthiasCopemanC1 name="Mathias-Copeman C1" units="_" value="0.96525" />
<HeatOfCombustion name="Standard net heat of combustion LHV" units="J/kmol" value="-4.45048E+09" />
<SolidDensity name="Solid density" units="kmol/m3">
  <eqno value="2" />
  <A value="9.9776" />
  <B value="-0.0074425" />
  <C value="0" />
  <D value="0" />
  <E value="0" />
  <Tmin units="K" value="59.74" />
  <Tmax units="K" value="149.34" />
  </SolidDensity>
<LiquidDensity name="Liquid density" units="kmol/m3">
  <eqno value="105" />
  <A value="0.5639" />
  <B value="0.25328" />
  <C value="520.51" />
  <D value="0.25578" />
  <Tmin units="K" value="149.34" />
  <Tmax units="K" value="520.5" />
  </LiquidDensity>
<VaporPressure name="Vapour pressure" units="Pa">
  <eqno value="101" />
  <A value="85.15112" />
  <B value="-6377.959" />
  <C value="-9.646055" />
  <D value="8.426861E-06" />
  <E value="2" />
  <Tmin units="K" value="149.34" />
  <Tmax units="K" value="520.5" />
  </VaporPressure>
<HeatOfVaporization name="Heat of vaporization" units="J/kmol">
  <eqno value="106" />
  <A value="5.34663E+07" />
  <B value="0.794603" />
  <C value="-0.00994342" />
  <D value="-0.969824" />
  <E value="0.623819" />
  <Tmin units="K" value="149.34" />
  <Tmax units="K" value="503" />
  </HeatOfVaporization>
<SolidHeatCapacityCp name="Solid heat capacity" units="J/kmol/K">
  <eqno value="100" />
  <A value="-151610" />
  <B value="8029.6" />
  <C value="-109.32" />
  <D value="0.68084" />
  <E value="-0.0014889" />
  <Tmin units="K" value="69.95" />
  <Tmax units="K" value="149.43" />
  </SolidHeatCapacityCp>
<LiquidHeatCapacityCp name="Liquid heat capacity" units="J/kmol/K">
  <eqno value="16" />
  <A value="129920" />
  <B value="-35.818" />
  <C value="9.4637" />
  <D value="0.0091865" />
  <E value="-0.0000074351" />
  <Tmin units="K" value="149.43" />
  <Tmax units="K" value="310" />
  </LiquidHeatCapacityCp>
<IdealGasHeatCapacityCp name="Ideal gas heat capacity" units="J/kmol/K">
  <eqno value="16" />
  <A value="80553" />
  <B value="-507.91" />
  <C value="12.99" />
  <D value="0.00027095" />
  <E value="-7.6982E-08" />
  <Tmin units="K" value="200" />
  <Tmax units="K" value="1500" />
  </IdealGasHeatCapacityCp>
<SecondVirialCoefficient name="Second virial coefficient" units="m3/kmol">
  <eqno value="104" />
  <A value="0.25329" />
  <B value="-290.61" />
  <C value="-31.592" />
  <D value="-7598.3" />
  <E value="14076" />
  <Tmin units="K" value="260.25" />
  <Tmax units="K" value="1898.25" />
  </SecondVirialCoefficient>
<LiquidViscosity name="Liquid viscosity" units="Pa.s">
  <eqno value="101" />
  <A value="-24.348" />
  <B value="1370.4" />
  <C value="2.2619" />
  <D value="-0.0000092505" />
  <E value="2" />
  <Tmin units="K" value="149.34" />
  <Tmax units="K" value="352.34" />
  </LiquidViscosity>
<VaporViscosity name="Vapour viscosity" units="Pa.s">
  <eqno value="102" />
  <A value="3.1425E-07" />
  <B value="0.61072" />
  <C value="160.83" />
  <D value="5436.3" />
  <Tmin units="K" value="352.34" />
  <Tmax units="K" value="1000" />
  </VaporViscosity>
<LiquidThermalConductivity name="Liquid thermal conductivity" units="W/m/K">
  <eqno value="16" />
  <A value="-0.052706" />
  <B value="3.783" />
  <C value="-1.5822" />
  <D value="-0.00046167" />
  <E value="-0.0000017248" />
  <Tmin units="K" value="149.34" />
  <Tmax units="K" value="352.34" />
  </LiquidThermalConductivity>
<VaporThermalConductivity name="Vapour thermal conductivity" units="W/m/K">
  <eqno value="102" />
  <A value="0.000010009" />
  <B value="1.3247" />
  <C value="-199.43" />
  <D value="115550" />
  <Tmin units="K" value="149.34" />
  <Tmax units="K" value="1000" />
  </VaporThermalConductivity>
<SurfaceTension name="Surface tension" units="N/m">
  <eqno value="16" />
  <A value="-0.010753" />
  <B value="30.074" />
  <C value="-3.2695" />
  <D value="0.00035683" />
  <E value="-0.0000056635" />
  <Tmin units="K" value="149.34" />
  <Tmax units="K" value="500.97" />
  </SurfaceTension>
<RPPHeatCapacityCp name="Ideal gas heat capacity (RPP)" units="J/kmol/K">
  <eqno value="100" />
  <A value="10934" />
  <B value="502.71" />
  <C value="0.23389" />
  <D value="-0.00063356" />
  <E value="2.8552E-07" />
  <Tmin units="K" value="200" />
  <Tmax units="K" value="1000" />
  </RPPHeatCapacityCp>
<RelativeStaticPermittivity name="Relative static permittivity" units="_">
  <eqno value="120" />
  <A value="-1.404923" />
  <B value="-950" />
  <C value="-5.7" />
  <Tmin units="K" value="274.15" />
  <Tmax units="K" value="444.15" />
  </RelativeStaticPermittivity>
<AntoineVaporPressure name="Antoine" units="Pa">
  <eqno value="10" />
  <A value="20.759" />
  <B value="2846.1" />
  <C value="-44.131" />
  <Tmin units="K" value="313.48" />
  <Tmax units="K" value="463.15" />
  </AntoineVaporPressure>
<LiquidViscosityRPS name="Liquid viscosity (RPS)" units="Pa.s">
  <eqno value="12" />
  <A value="-1.8111" />
  <B value="-0.019605" />
  <Tmin units="K" value="149.34" />
  <Tmax units="K" value="352.34" />
  </LiquidViscosityRPS>
<COSTALDVolume name="COSTLD characteristic volume (V*)" units="m3/kmol" value="0.425834" />
<DiameterLJ name="Lennard Jones diameter" units="m" value="6.823625E-10" />
<EnergyLJ name="Lennard Jones energy" units="K" value="288.9511" />
<RacketParameter name="Rackett parameter" units="_" value="0.266" />
<FullerVolume name="Fuller et al. diffusion volume" units="_" value="148.26" />
<MatthiasCopemanC2 name="Mathias-Copeman C2" units="_" value="-0.424" />
<Parachor name="Parachor" units="kg0.25.m3/s0.5/kmol" value="0.0539877" />
<SpecificGravity name="Specific gravity" units="_" value="0.682101" />
<Charge name="Charge" units="_" value="0" />
<CostaldAcentricFactor name="SRK acentric factor" units="_" value="0.287" />
<WilsonVolume name="Wilson volume" units="m3/kmol" value="0.14967" />
<UniquacR name="UNIQUAC r" units="_" value="5.1727" />
<UniquacQ name="UNIQUAC q" units="_" value="4.472" />
<ApiSrkS2 name="API-SRK s2" units="_" value="-0.003786" />
<MatthiasCopemanC3 name="Mathias-Copeman C3" units="_" value="0.86847" />
<ChaoSeaderAcentricFactor name="Chao-Seader acentric factor" units="_" value="0.287" />
<ChaoSeaderSolubilityParameter name="Chao-Seader solubility parameter" units="J0.5/m1.5" value="14260" />
<ChaoSeaderLiquidVolume name="Chao-Seader liquid volume" units="m3/kmol" value="0.14967" />
<UnifacVLE name="UNIFAC">
  <group id="1" value="4" />
  <group id="2" value="2" />
  <group id="4" value="1" />
  </UnifacVLE>
<UnifacLLE name="UNIFAC-LLE">
  <group id="1" value="4" />
  <group id="2" value="2" />
  <group id="4" value="1" />
  </UnifacLLE>
<Asog name="ASOG">
  <group id="1" value="4" />
  <group id="2" value="2" />
  <group id="4" value="1" />
  </Asog>
<GCmethod name="PPR78">
  <group id="1" value="4" />
  <group id="2" value="2" />
  <group id="4" value="1" />
  </GCmethod>
<Umr name="UMR">
  <group id="1" value="4" />
  <group id="2" value="2" />
  <group id="4" value="1" />
  </Umr>
<ModifiedUnifac name="Modified UNIFAC">
  <group id="1" value="4" />
  <group id="2" value="2" />
  <group id="4" value="1" />
  </ModifiedUnifac>
<CAS name="CAS number" value="590-35-2" />
<Smiles name="SMILES" value="CC(C)(C)CCC" />
</compound>

