<compound>
<LibraryIndex name="Index" value="22" />
<CompoundID name="Name" value="2,3-dimethylpentane" />
<StructureFormula name="Structure" value="CH3CH2CH(CH3)CH(CH3)2" />
<Family name="Family" value="4" />
<CriticalTemperature name="Critical temperature" units="K" value="537.3" />
<CriticalPressure name="Critical pressure" units="Pa" value="2910000" />
<CriticalVolume name="Critical volume" units="m3/kmol" value="0.393" />
<CriticalCompressibility name="Critical compressibility factor" units="_" value="0.256" />
<NormalBoilingPointTemperature name="Normal boiling point" units="K" value="362.91" />
<MolecularWeight name="Molecular weight" units="kg/kmol" value="100.202" />
<LiquidVolumeAtNormalBoilingPoint name="Liquid molar volume at normal boiling point" units="m3/kmol" value="0.14505" />
<AcentricityFactor name="Acentric factor" units="_" value="0.297" />
<RadiusOfGyration name="Radius of gyration" units="m" value="3.917E-10" />
<SolubilityParameter name="Solubility parameter" units="J0.5/m1.5" value="14820" />
<DipoleMoment name="Dipole moment" units="Coulomb.m" value="0" />
<VanDerWaalsVolume name="Van der Waals volume" units="m3/kmol" value="0.07847" />
<VanDerWaalsArea name="Van der Waals area" units="m2/kmol" value="1.097E+09" />
<HeatOfFormation name="IG heat of formation" units="J/kmol" value="-1.941E+08" />
<GibbsEnergyOfFormation name="IG Gibbs energy of formation" units="J/kmol" value="5610000" />
<AbsEntropy name="IG absolute entropy" units="J/kmol/K" value="414550" />
<HeatOfFusionAtMeltingPoint name="Heat of fusion at melting point" units="J/kmol" value="0" />
<MatthiasCopemanC1 name="Mathias-Copeman C1" units="_" value="0.88928" />
<HeatOfCombustion name="Standard net heat of combustion LHV" units="J/kmol" value="-4.45567E+09" />
<SolidDensity name="Solid density" units="kmol/m3">
  <eqno value="2" />
  <A value="9.21" />
  <B value="-5.0318E-16" />
  <C value="0" />
  <D value="0" />
  <E value="0" />
  <Tmin units="K" value="0" />
  <Tmax units="K" value="9.5" />
  </SolidDensity>
<LiquidDensity name="Liquid density" units="kmol/m3">
  <eqno value="105" />
  <A value="0.60743" />
  <B value="0.26317" />
  <C value="537.3" />
  <D value="0.2444" />
  <Tmin units="K" value="160" />
  <Tmax units="K" value="537.25" />
  </LiquidDensity>
<VaporPressure name="Vapour pressure" units="Pa">
  <eqno value="101" />
  <A value="81.051" />
  <B value="-6444.3" />
  <C value="-8.9383" />
  <D value="0.0000069583" />
  <E value="2" />
  <Tmin units="K" value="160" />
  <Tmax units="K" value="537.3" />
  </VaporPressure>
<HeatOfVaporization name="Heat of vaporization" units="J/kmol">
  <eqno value="106" />
  <A value="5.686611E+07" />
  <B value="1.319959" />
  <C value="-1.914129" />
  <D value="1.410201" />
  <E value="-0.377243" />
  <Tmin units="K" value="160" />
  <Tmax units="K" value="517.44" />
  </HeatOfVaporization>
<SolidHeatCapacityCp name="Solid heat capacity" units="J/kmol/K">
  <eqno value="100" />
  <A value="-5151" />
  <B value="688.15" />
  <C value="37.701" />
  <D value="-0.85477" />
  <E value="0.0056064" />
  <Tmin units="K" value="11.98" />
  <Tmax units="K" value="81.37" />
  </SolidHeatCapacityCp>
<LiquidHeatCapacityCp name="Liquid heat capacity" units="J/kmol/K">
  <eqno value="16" />
  <A value="144370" />
  <B value="-45.964" />
  <C value="9.0642" />
  <D value="0.010184" />
  <E value="-0.0000082901" />
  <Tmin units="K" value="83.99" />
  <Tmax units="K" value="385.25" />
  </LiquidHeatCapacityCp>
<IdealGasHeatCapacityCp name="Ideal gas heat capacity" units="J/kmol/K">
  <eqno value="16" />
  <A value="33579" />
  <B value="-324.43" />
  <C value="12.683" />
  <D value="0.00063287" />
  <E value="-2.0243E-07" />
  <Tmin units="K" value="200" />
  <Tmax units="K" value="1500" />
  </IdealGasHeatCapacityCp>
<SecondVirialCoefficient name="Second virial coefficient" units="m3/kmol">
  <eqno value="104" />
  <A value="0.24143" />
  <B value="-309.97" />
  <C value="-36.759" />
  <D value="-3835.1" />
  <E value="5611.3" />
  <Tmin units="K" value="268" />
  <Tmax units="K" value="1955" />
  </SecondVirialCoefficient>
<LiquidViscosity name="Liquid viscosity" units="Pa.s">
  <eqno value="101" />
  <A value="-16.952" />
  <B value="1255.2" />
  <C value="0.89405" />
  <D value="-0.0000015964" />
  <E value="2" />
  <Tmin units="K" value="150" />
  <Tmax units="K" value="400" />
  </LiquidViscosity>
<VaporViscosity name="Vapour viscosity" units="Pa.s">
  <eqno value="102" />
  <A value="0.0000005037" />
  <B value="0.54462" />
  <C value="227.41" />
  <D value="8.0354" />
  <Tmin units="K" value="160" />
  <Tmax units="K" value="1000" />
  </VaporViscosity>
<LiquidThermalConductivity name="Liquid thermal conductivity" units="W/m/K">
  <eqno value="16" />
  <A value="-0.054333" />
  <B value="2.0859" />
  <C value="-1.4922" />
  <D value="-0.00079317" />
  <E value="-0.0000012037" />
  <Tmin units="K" value="160" />
  <Tmax units="K" value="362.93" />
  </LiquidThermalConductivity>
<VaporThermalConductivity name="Vapour thermal conductivity" units="W/m/K">
  <eqno value="102" />
  <A value="0.000019733" />
  <B value="1.2301" />
  <C value="-158.93" />
  <D value="129950" />
  <Tmin units="K" value="274" />
  <Tmax units="K" value="1000" />
  </VaporThermalConductivity>
<SurfaceTension name="Surface tension" units="N/m">
  <eqno value="16" />
  <A value="-0.013919" />
  <B value="16.742" />
  <C value="-2.9807" />
  <D value="-0.00044342" />
  <E value="-0.0000038565" />
  <Tmin units="K" value="160" />
  <Tmax units="K" value="517.44" />
  </SurfaceTension>
<RPPHeatCapacityCp name="Ideal gas heat capacity (RPP)" units="J/kmol/K">
  <eqno value="100" />
  <A value="-35869" />
  <B value="804.08" />
  <C value="-0.53662" />
  <D value="0.00018516" />
  <E value="-2.6024E-08" />
  <Tmin units="K" value="200" />
  <Tmax units="K" value="1000" />
  </RPPHeatCapacityCp>
<RelativeStaticPermittivity name="Relative static permittivity" units="_">
  <eqno value="120" />
  <A value="-1.404923" />
  <B value="-950" />
  <C value="-5.7" />
  <Tmin units="K" value="274.15" />
  <Tmax units="K" value="444.15" />
  </RelativeStaticPermittivity>
<AntoineVaporPressure name="Antoine" units="Pa">
  <eqno value="10" />
  <A value="21.174" />
  <B value="3137.4" />
  <C value="-38.214" />
  <Tmin units="K" value="160" />
  <Tmax units="K" value="537.3" />
  </AntoineVaporPressure>
<LiquidViscosityRPS name="Liquid viscosity (RPS)" units="Pa.s">
  <eqno value="12" />
  <A value="-2.0645" />
  <B value="-0.018776" />
  <Tmin units="K" value="150" />
  <Tmax units="K" value="362.93" />
  </LiquidViscosityRPS>
<COSTALDVolume name="COSTLD characteristic volume (V*)" units="m3/kmol" value="0.425834" />
<DiameterLJ name="Lennard Jones diameter" units="m" value="7.011665E-10" />
<EnergyLJ name="Lennard Jones energy" units="K" value="259.8926" />
<RacketParameter name="Rackett parameter" units="_" value="0.256" />
<FullerVolume name="Fuller et al. diffusion volume" units="_" value="148.26" />
<MatthiasCopemanC2 name="Mathias-Copeman C2" units="_" value="0.18338" />
<Parachor name="Parachor" units="kg0.25.m3/s0.5/kmol" value="0.0536701" />
<SpecificGravity name="Specific gravity" units="_" value="0.699521" />
<Charge name="Charge" units="_" value="0" />
<CostaldAcentricFactor name="SRK acentric factor" units="_" value="0.297" />
<WilsonVolume name="Wilson volume" units="m3/kmol" value="0.14505" />
<UniquacR name="UNIQUAC r" units="_" value="5.1726" />
<UniquacQ name="UNIQUAC q" units="_" value="4.388" />
<ApiSrkS2 name="API-SRK s2" units="_" value="-0.001338" />
<MatthiasCopemanC3 name="Mathias-Copeman C3" units="_" value="-0.27172" />
<ChaoSeaderAcentricFactor name="Chao-Seader acentric factor" units="_" value="0.297" />
<ChaoSeaderSolubilityParameter name="Chao-Seader solubility parameter" units="J0.5/m1.5" value="14820" />
<ChaoSeaderLiquidVolume name="Chao-Seader liquid volume" units="m3/kmol" value="0.14505" />
<UnifacVLE name="UNIFAC">
  <group id="1" value="4" />
  <group id="2" value="1" />
  <group id="3" value="2" />
  </UnifacVLE>
<UnifacLLE name="UNIFAC-LLE">
  <group id="1" value="4" />
  <group id="2" value="1" />
  <group id="3" value="2" />
  </UnifacLLE>
<Asog name="ASOG">
  <group id="1" value="4" />
  <group id="2" value="1" />
  <group id="3" value="2" />
  </Asog>
<GCmethod name="PPR78">
  <group id="1" value="4" />
  <group id="2" value="1" />
  <group id="3" value="2" />
  </GCmethod>
<Umr name="UMR">
  <group id="1" value="4" />
  <group id="2" value="1" />
  <group id="3" value="2" />
  </Umr>
<ModifiedUnifac name="Modified UNIFAC">
  <group id="1" value="4" />
  <group id="2" value="1" />
  <group id="3" value="2" />
  </ModifiedUnifac>
<CAS name="CAS number" value="565-59-3" />
<Smiles name="SMILES" value="CC(C)C(C)CC" />
</compound>

