<compound>
<LibraryIndex name="Index" value="49" />
<CompoundID name="Name" value="2,4,4-trimethylhexane" />
<StructureFormula name="Structure" value="CH3CH2C(CH3)2CH2CH(CH3)2" />
<Family name="Family" value="4" />
<CriticalTemperature name="Critical temperature" units="K" value="583" />
<CriticalPressure name="Critical pressure" units="Pa" value="2500000" />
<CriticalVolume name="Critical volume" units="m3/kmol" value="0.509" />
<CriticalCompressibility name="Critical compressibility factor" units="_" value="0.26" />
<NormalBoilingPointTemperature name="Normal boiling point" units="K" value="403.81" />
<NormalMeltingPointTemperature name="Melting point" units="K" value="159.78" />
<TriplePointTemperature name="Triple point temperature" units="K" value="159.78" />
<TriplePointPressure name="Triple point pressure" units="Pa" value="0.000306827" />
<MolecularWeight name="Molecular weight" units="kg/kmol" value="128.2551" />
<LiquidVolumeAtNormalBoilingPoint name="Liquid molar volume at normal boiling point" units="m3/kmol" value="0.178125" />
<AcentricityFactor name="Acentric factor" units="_" value="0.352203" />
<RadiusOfGyration name="Radius of gyration" units="m" value="4.432E-10" />
<SolubilityParameter name="Solubility parameter" units="J0.5/m1.5" value="14590" />
<DipoleMoment name="Dipole moment" units="Coulomb.m" value="0" />
<VanDerWaalsVolume name="Van der Waals volume" units="m3/kmol" value="0.09892" />
<VanDerWaalsArea name="Van der Waals area" units="m2/kmol" value="1.387E+09" />
<HeatOfFormation name="IG heat of formation" units="J/kmol" value="-2.403E+08" />
<GibbsEnergyOfFormation name="IG Gibbs energy of formation" units="J/kmol" value="2.5E+07" />
<AbsEntropy name="IG absolute entropy" units="J/kmol/K" value="468400" />
<HeatOfFusionAtMeltingPoint name="Heat of fusion at melting point" units="J/kmol" value="1.13E+07" />
<HeatOfCombustion name="Standard net heat of combustion LHV" units="J/kmol" value="-5.68E+09" />
<SolidDensity name="Solid density" units="kmol/m3">
  <eqno value="100" />
  <A value="8.1808" />
  <B value="-0.0064001" />
  <C value="0" />
  <D value="0" />
  <E value="0" />
  <Tmin units="K" value="63.91" />
  <Tmax units="K" value="159.78" />
  </SolidDensity>
<LiquidDensity name="Liquid density" units="kmol/m3">
  <eqno value="105" />
  <A value="0.098546" />
  <B value="0.11862" />
  <C value="583" />
  <D value="0.15161" />
  <Tmin units="K" value="159.78" />
  <Tmax units="K" value="581" />
  </LiquidDensity>
<VaporPressure name="Vapour pressure" units="Pa">
  <eqno value="101" />
  <A value="143.1127" />
  <B value="-9541.532" />
  <C value="-18.4559" />
  <D value="0.0000171318" />
  <E value="2" />
  <Tmin units="K" value="159.78" />
  <Tmax units="K" value="581" />
  </VaporPressure>
<HeatOfVaporization name="Heat of vaporization" units="J/kmol">
  <eqno value="106" />
  <A value="5.5551E+07" />
  <B value="0.63316" />
  <C value="-0.60532" />
  <D value="0.59593" />
  <E value="-0.24062" />
  <Tmin units="K" value="159.78" />
  <Tmax units="K" value="581" />
  </HeatOfVaporization>
<SolidHeatCapacityCp name="Solid heat capacity" units="J/kmol/K">
  <eqno value="1" />
  <A value="249210" />
  <Tmin units="K" value="0" />
  <Tmax units="K" value="583" />
  </SolidHeatCapacityCp>
<LiquidHeatCapacityCp name="Liquid heat capacity" units="J/kmol/K">
  <eqno value="16" />
  <A value="36795" />
  <B value="-79.414" />
  <C value="11.689" />
  <D value="0.0041098" />
  <E value="-0.0000031494" />
  <Tmin units="K" value="200" />
  <Tmax units="K" value="403.81" />
  </LiquidHeatCapacityCp>
<IdealGasHeatCapacityCp name="Ideal gas heat capacity" units="J/kmol/K">
  <eqno value="16" />
  <A value="84170" />
  <B value="-452.22" />
  <C value="13.167" />
  <D value="0.00035197" />
  <E value="-1.1076E-07" />
  <Tmin units="K" value="200" />
  <Tmax units="K" value="1500" />
  </IdealGasHeatCapacityCp>
<SecondVirialCoefficient name="Second virial coefficient" units="m3/kmol">
  <eqno value="104" />
  <A value="0.33299" />
  <B value="-391.8" />
  <C value="-66.527" />
  <D value="-6374" />
  <E value="-5982.8" />
  <Tmin units="K" value="290.5" />
  <Tmax units="K" value="1500" />
  </SecondVirialCoefficient>
<LiquidViscosity name="Liquid viscosity" units="Pa.s">
  <eqno value="101" />
  <A value="-6.9748" />
  <B value="1194.1" />
  <C value="-0.75025" />
  <D value="-2.9452E-08" />
  <E value="2" />
  <Tmin units="K" value="159.78" />
  <Tmax units="K" value="524.7" />
  </LiquidViscosity>
<VaporViscosity name="Vapour viscosity" units="Pa.s">
  <eqno value="102" />
  <A value="0.0000003308" />
  <B value="0.60466" />
  <C value="252.52" />
  <D value="-7535.6" />
  <Tmin units="K" value="159.78" />
  <Tmax units="K" value="1000" />
  </VaporViscosity>
<LiquidThermalConductivity name="Liquid thermal conductivity" units="W/m/K">
  <eqno value="16" />
  <A value="-0.061213" />
  <B value="3.6115" />
  <C value="-1.5687" />
  <D value="-0.00048198" />
  <E value="-0.000001134" />
  <Tmin units="K" value="159.78" />
  <Tmax units="K" value="403.81" />
  </LiquidThermalConductivity>
<VaporThermalConductivity name="Vapour thermal conductivity" units="W/m/K">
  <eqno value="102" />
  <A value="0.000028131" />
  <B value="1.1825" />
  <C value="-103.57" />
  <D value="142450" />
  <Tmin units="K" value="159.78" />
  <Tmax units="K" value="1000" />
  </VaporThermalConductivity>
<SurfaceTension name="Surface tension" units="N/m">
  <eqno value="16" />
  <A value="-0.016164" />
  <B value="11.187" />
  <C value="-2.915" />
  <D value="-0.00065885" />
  <E value="-0.0000025171" />
  <Tmin units="K" value="159.78" />
  <Tmax units="K" value="581" />
  </SurfaceTension>
<RPPHeatCapacityCp name="Ideal gas heat capacity (RPP)" units="J/kmol/K">
  <eqno value="4" />
  <A value="-26639" />
  <B value="942.63" />
  <C value="-0.52031" />
  <D value="0.00011267" />
  <Tmin units="K" value="200" />
  <Tmax units="K" value="1500" />
  </RPPHeatCapacityCp>
<AntoineVaporPressure name="Antoine" units="Pa">
  <eqno value="10" />
  <A value="20.68" />
  <B value="3161.4" />
  <C value="-58.474" />
  <Tmin units="K" value="351" />
  <Tmax units="K" value="514.49" />
  </AntoineVaporPressure>
<LiquidViscosityRPS name="Liquid viscosity (RPS)" units="Pa.s">
  <eqno value="12" />
  <A value="-1.6176" />
  <B value="-0.017458" />
  <Tmin units="K" value="159.78" />
  <Tmax units="K" value="460" />
  </LiquidViscosityRPS>
<COSTALDVolume name="COSTLD characteristic volume (V*)" units="m3/kmol" value="0.5501" />
<DiameterLJ name="Lennard Jones diameter" units="m" value="7.502101E-10" />
<EnergyLJ name="Lennard Jones energy" units="K" value="298.185" />
<RacketParameter name="Rackett parameter" units="_" value="0.26" />
<FullerVolume name="Fuller et al. diffusion volume" units="_" value="189.3" />
<Parachor name="Parachor" units="kg0.25.m3/s0.5/kmol" value="0.0676501" />
<SpecificGravity name="Specific gravity" units="_" value="0.728934" />
<Charge name="Charge" units="_" value="0" />
<CostaldAcentricFactor name="SRK acentric factor" units="_" value="0.352203" />
<WilsonVolume name="Wilson volume" units="m3/kmol" value="0.178125" />
<UniquacR name="UNIQUAC r" units="_" value="6.5207" />
<UniquacQ name="UNIQUAC q" units="_" value="5.548" />
<ChaoSeaderAcentricFactor name="Chao-Seader acentric factor" units="_" value="0.352203" />
<ChaoSeaderSolubilityParameter name="Chao-Seader solubility parameter" units="J0.5/m1.5" value="14590" />
<ChaoSeaderLiquidVolume name="Chao-Seader liquid volume" units="m3/kmol" value="0.178125" />
<UnifacVLE name="UNIFAC">
  <group id="1" value="5" />
  <group id="2" value="2" />
  <group id="3" value="1" />
  <group id="4" value="1" />
  </UnifacVLE>
<UnifacLLE name="UNIFAC-LLE">
  <group id="1" value="5" />
  <group id="2" value="2" />
  <group id="3" value="1" />
  <group id="4" value="1" />
  </UnifacLLE>
<Asog name="ASOG">
  <group id="1" value="5" />
  <group id="2" value="2" />
  <group id="3" value="1" />
  <group id="4" value="1" />
  </Asog>
<GCmethod name="PPR78">
  <group id="1" value="5" />
  <group id="2" value="2" />
  <group id="3" value="1" />
  <group id="4" value="1" />
  </GCmethod>
<Umr name="UMR">
  <group id="1" value="5" />
  <group id="2" value="2" />
  <group id="3" value="1" />
  <group id="4" value="1" />
  </Umr>
<ModifiedUnifac name="Modified UNIFAC">
  <group id="1" value="5" />
  <group id="2" value="2" />
  <group id="3" value="1" />
  <group id="4" value="1" />
  </ModifiedUnifac>
<CAS name="CAS number" value="16747-30-1" />
<Smiles name="SMILES" value="CC(C)CC(C)(C)CC" />
</compound>

