<compound>
<LibraryIndex name="Index" value="2744" />
<CompoundID name="Name" value="2,6-dinitrotoluene" />
<StructureFormula name="Structure" value="CH3(C6H3)(NO2)2" />
<Family name="Family" value="39" />
<CriticalTemperature name="Critical temperature" units="K" value="780" />
<CriticalPressure name="Critical pressure" units="Pa" value="3400000" />
<CriticalVolume name="Critical volume" units="m3/kmol" value="0.487" />
<CriticalCompressibility name="Critical compressibility factor" units="_" value="0.242" />
<NormalBoilingPointTemperature name="Normal boiling point" units="K" value="553" />
<NormalMeltingPointTemperature name="Melting point" units="K" value="339" />
<TriplePointTemperature name="Triple point temperature" units="K" value="337.85" />
<TriplePointPressure name="Triple point pressure" units="Pa" value="24.9565" />
<MolecularWeight name="Molecular weight" units="kg/kmol" value="182.1335" />
<LiquidVolumeAtNormalBoilingPoint name="Liquid molar volume at normal boiling point" units="m3/kmol" value="0.136568" />
<AcentricityFactor name="Acentric factor" units="_" value="0.714206" />
<RadiusOfGyration name="Radius of gyration" units="m" value="4.887E-10" />
<SolubilityParameter name="Solubility parameter" units="J0.5/m1.5" value="20760" />
<DipoleMoment name="Dipole moment" units="Coulomb.m" value="9.37E-30" />
<VanDerWaalsVolume name="Van der Waals volume" units="m3/kmol" value="0.08807" />
<VanDerWaalsArea name="Van der Waals area" units="m2/kmol" value="1.112E+09" />
<HeatOfFormation name="IG heat of formation" units="J/kmol" value="2.86E+07" />
<GibbsEnergyOfFormation name="IG Gibbs energy of formation" units="J/kmol" value="2.32E+08" />
<AbsEntropy name="IG absolute entropy" units="J/kmol/K" value="414000" />
<HeatOfFusionAtMeltingPoint name="Heat of fusion at melting point" units="J/kmol" value="2.12E+07" />
<HeatOfCombustion name="Standard net heat of combustion LHV" units="J/kmol" value="-3.429E+09" />
<SolidDensity name="Solid density" units="kmol/m3">
  <eqno value="2" />
  <A value="8.4498" />
  <B value="-1.9264E-08" />
  <C value="0" />
  <D value="0" />
  <E value="0" />
  <Tmin units="K" value="288.15" />
  <Tmax units="K" value="297.65" />
  </SolidDensity>
<LiquidDensity name="Liquid density" units="kmol/m3">
  <eqno value="105" />
  <A value="0.27332" />
  <B value="0.17415" />
  <C value="780" />
  <D value="0.22386" />
  <Tmin units="K" value="337.85" />
  <Tmax units="K" value="747.26" />
  </LiquidDensity>
<VaporPressure name="Vapour pressure" units="Pa">
  <eqno value="101" />
  <A value="115.7657" />
  <B value="-12082.2" />
  <C value="-13.31782" />
  <D value="5.09858E-06" />
  <E value="2" />
  <Tmin units="K" value="337.85" />
  <Tmax units="K" value="770" />
  </VaporPressure>
<HeatOfVaporization name="Heat of vaporization" units="J/kmol">
  <eqno value="106" />
  <A value="1.041715E+08" />
  <B value="1.247529" />
  <C value="0.0309575" />
  <D value="-2.851863" />
  <E value="1.938855" />
  <Tmin units="K" value="337.85" />
  <Tmax units="K" value="770" />
  </HeatOfVaporization>
<SolidHeatCapacityCp name="Solid heat capacity" units="J/kmol/K">
  <eqno value="100" />
  <A value="8264.5" />
  <B value="917.86" />
  <C value="-1.527" />
  <D value="0.0032636" />
  <E value="-0.0000030408" />
  <Tmin units="K" value="50" />
  <Tmax units="K" value="337.85" />
  </SolidHeatCapacityCp>
<LiquidHeatCapacityCp name="Liquid heat capacity" units="J/kmol/K">
  <eqno value="16" />
  <A value="163490" />
  <B value="785.69" />
  <C value="5.0684" />
  <D value="0.014589" />
  <E value="-0.0000070833" />
  <Tmin units="K" value="337.85" />
  <Tmax units="K" value="558" />
  </LiquidHeatCapacityCp>
<IdealGasHeatCapacityCp name="Ideal gas heat capacity" units="J/kmol/K">
  <eqno value="16" />
  <A value="94512" />
  <B value="-582.56" />
  <C value="13.27" />
  <D value="-0.00026587" />
  <E value="5.3735E-08" />
  <Tmin units="K" value="273" />
  <Tmax units="K" value="1500" />
  </IdealGasHeatCapacityCp>
<SecondVirialCoefficient name="Second virial coefficient" units="m3/kmol">
  <eqno value="104" />
  <A value="0.5317" />
  <B value="-704.49" />
  <C value="-124.14" />
  <D value="-895340" />
  <E value="2377800" />
  <Tmin units="K" value="385" />
  <Tmax units="K" value="1500" />
  </SecondVirialCoefficient>
<LiquidViscosity name="Liquid viscosity" units="Pa.s">
  <eqno value="101" />
  <A value="-70.386" />
  <B value="5310.9" />
  <C value="8.6262" />
  <D value="-0.0000081126" />
  <E value="2" />
  <Tmin units="K" value="337.85" />
  <Tmax units="K" value="714" />
  </LiquidViscosity>
<VaporViscosity name="Vapour viscosity" units="Pa.s">
  <eqno value="102" />
  <A value="5.9592E-08" />
  <B value="0.88167" />
  <C value="135.78" />
  <D value="-11605" />
  <Tmin units="K" value="337.85" />
  <Tmax units="K" value="1000" />
  </VaporViscosity>
<LiquidThermalConductivity name="Liquid thermal conductivity" units="W/m/K">
  <eqno value="16" />
  <A value="-0.039901" />
  <B value="-99.466" />
  <C value="-0.76681" />
  <D value="-0.0019329" />
  <E value="1.8512E-07" />
  <Tmin units="K" value="337.85" />
  <Tmax units="K" value="558" />
  </LiquidThermalConductivity>
<VaporThermalConductivity name="Vapour thermal conductivity" units="W/m/K">
  <eqno value="102" />
  <A value="0.00015932" />
  <B value="0.92355" />
  <C value="690.15" />
  <D value="19720" />
  <Tmin units="K" value="274" />
  <Tmax units="K" value="1000" />
  </VaporThermalConductivity>
<SurfaceTension name="Surface tension" units="N/m">
  <eqno value="16" />
  <A value="-0.012803" />
  <B value="255.04" />
  <C value="-4.0121" />
  <D value="0.0034159" />
  <E value="-0.0000055401" />
  <Tmin units="K" value="337.85" />
  <Tmax units="K" value="770" />
  </SurfaceTension>
<RPPHeatCapacityCp name="Ideal gas heat capacity (RPP)" units="J/kmol/K">
  <eqno value="4" />
  <A value="-14258" />
  <B value="768.51" />
  <C value="-0.52986" />
  <D value="0.00013246" />
  <Tmin units="K" value="273" />
  <Tmax units="K" value="1500" />
  </RPPHeatCapacityCp>
<AntoineVaporPressure name="Antoine" units="Pa">
  <eqno value="10" />
  <A value="26.68" />
  <B value="10368" />
  <C value="125.19" />
  <Tmin units="K" value="470" />
  <Tmax units="K" value="701.77" />
  </AntoineVaporPressure>
<LiquidViscosityRPS name="Liquid viscosity (RPS)" units="Pa.s">
  <eqno value="12" />
  <A value="-0.49935" />
  <B value="-0.0153" />
  <Tmin units="K" value="337.85" />
  <Tmax units="K" value="558" />
  </LiquidViscosityRPS>
<COSTALDVolume name="COSTLD characteristic volume (V*)" units="m3/kmol" value="0.483027" />
<DiameterLJ name="Lennard Jones diameter" units="m" value="8.057052E-10" />
<EnergyLJ name="Lennard Jones energy" units="K" value="308.1365" />
<RacketParameter name="Rackett parameter" units="_" value="0.242" />
<FullerVolume name="Fuller et al. diffusion volume" units="_" value="122.08" />
<Parachor name="Parachor" units="kg0.25.m3/s0.5/kmol" value="0.0654633" />
<SpecificGravity name="Specific gravity" units="_" value="1.383668" />
<Charge name="Charge" units="_" value="0" />
<CostaldAcentricFactor name="SRK acentric factor" units="_" value="0.714206" />
<WilsonVolume name="Wilson volume" units="m3/kmol" value="0.136568" />
<UniquacR name="UNIQUAC r" units="_" value="5.7" />
<UniquacQ name="UNIQUAC q" units="_" value="4.376" />
<ChaoSeaderAcentricFactor name="Chao-Seader acentric factor" units="_" value="0.714206" />
<ChaoSeaderSolubilityParameter name="Chao-Seader solubility parameter" units="J0.5/m1.5" value="20760" />
<ChaoSeaderLiquidVolume name="Chao-Seader liquid volume" units="m3/kmol" value="0.136568" />
<UnifacVLE name="UNIFAC">
  <group id="10" value="3" />
  <group id="12" value="1" />
  <group id="58" value="2" />
  </UnifacVLE>
<UnifacLLE name="UNIFAC-LLE">
  <group id="9" value="3" />
  <group id="11" value="1" />
  <group id="47" value="2" />
  </UnifacLLE>
<Asog name="ASOG">
  <group id="1" value="1" />
  <group id="10" value="3" />
  <group id="11" value="3" />
  <group id="34" value="2" />
  </Asog>
<Umr name="UMR">
  <group id="10" value="3" />
  <group id="12" value="1" />
  <group id="58" value="2" />
  </Umr>
<ModifiedUnifac name="Modified UNIFAC">
  <group id="9" value="3" />
  <group id="11" value="1" />
  <group id="57" value="2" />
  </ModifiedUnifac>
<CAS name="CAS number" value="606-20-2" />
<Smiles name="SMILES" value="c1c(N(=O)=O)c(C)c(N(=O)=O)cc1" />
</compound>

