<compound>
<LibraryIndex name="Index" value="1176" />
<CompoundID name="Name" value="2,6-xylenol" />
<StructureFormula name="Structure" value="(C6H3)(CH3)2OH" />
<Family name="Family" value="48" />
<CriticalTemperature name="Critical temperature" units="K" value="700.95" />
<CriticalPressure name="Critical pressure" units="Pa" value="4255650" />
<CriticalVolume name="Critical volume" units="m3/kmol" value="0.52" />
<CriticalCompressibility name="Critical compressibility factor" units="_" value="0.288" />
<NormalBoilingPointTemperature name="Normal boiling point" units="K" value="474.18" />
<NormalMeltingPointTemperature name="Melting point" units="K" value="318.77" />
<TriplePointTemperature name="Triple point temperature" units="K" value="318.76" />
<TriplePointPressure name="Triple point pressure" units="Pa" value="165.332" />
<MolecularWeight name="Molecular weight" units="kg/kmol" value="122.164" />
<LiquidVolumeAtNormalBoilingPoint name="Liquid molar volume at normal boiling point" units="m3/kmol" value="0.137056" />
<AcentricityFactor name="Acentric factor" units="_" value="0.455406" />
<RadiusOfGyration name="Radius of gyration" units="m" value="4.068E-10" />
<SolubilityParameter name="Solubility parameter" units="J0.5/m1.5" value="19480" />
<DipoleMoment name="Dipole moment" units="Coulomb.m" value="4.7E-30" />
<VanDerWaalsVolume name="Van der Waals volume" units="m3/kmol" value="0.07618" />
<VanDerWaalsArea name="Van der Waals area" units="m2/kmol" value="9.6E+08" />
<HeatOfFormation name="IG heat of formation" units="J/kmol" value="-1.6175E+08" />
<GibbsEnergyOfFormation name="IG Gibbs energy of formation" units="J/kmol" value="-3.904E+07" />
<AbsEntropy name="IG absolute entropy" units="J/kmol/K" value="389720" />
<HeatOfFusionAtMeltingPoint name="Heat of fusion at melting point" units="J/kmol" value="1.52E+07" />
<HeatOfCombustion name="Standard net heat of combustion LHV" units="J/kmol" value="-4.11981E+09" />
<SolidDensity name="Solid density" units="kmol/m3">
  <eqno value="100" />
  <A value="9.266" />
  <B value="0" />
  <C value="0" />
  <D value="0" />
  <E value="0" />
  <Tmin units="K" value="298.15" />
  <Tmax units="K" value="298.15" />
  </SolidDensity>
<LiquidDensity name="Liquid density" units="kmol/m3">
  <eqno value="105" />
  <A value="0.73771" />
  <B value="0.288" />
  <C value="701.05" />
  <D value="0.28571" />
  <Tmin units="K" value="318.76" />
  <Tmax units="K" value="701.05" />
  </LiquidDensity>
<VaporPressure name="Vapour pressure" units="Pa">
  <eqno value="101" />
  <A value="129.33" />
  <B value="-11290" />
  <C value="-15.546" />
  <D value="0.0000079759" />
  <E value="2" />
  <Tmin units="K" value="318.76" />
  <Tmax units="K" value="701.05" />
  </VaporPressure>
<HeatOfVaporization name="Heat of vaporization" units="J/kmol">
  <eqno value="106" />
  <A value="6.7822E+07" />
  <B value="0.35526" />
  <C value="0" />
  <D value="0" />
  <E value="0" />
  <Tmin units="K" value="318.76" />
  <Tmax units="K" value="701.05" />
  </HeatOfVaporization>
<SolidHeatCapacityCp name="Solid heat capacity" units="J/kmol/K">
  <eqno value="102" />
  <A value="1950" />
  <B value="0.79267" />
  <C value="0" />
  <D value="0" />
  <Tmin units="K" value="50" />
  <Tmax units="K" value="318.76" />
  </SolidHeatCapacityCp>
<LiquidHeatCapacityCp name="Liquid heat capacity" units="J/kmol/K">
  <eqno value="100" />
  <A value="77280" />
  <B value="452.7" />
  <C value="0" />
  <D value="0" />
  <E value="0" />
  <Tmin units="K" value="350.53" />
  <Tmax units="K" value="520.53" />
  </LiquidHeatCapacityCp>
<IdealGasHeatCapacityCp name="Ideal gas heat capacity" units="J/kmol/K">
  <eqno value="16" />
  <A value="71822.01" />
  <B value="-500" />
  <C value="13" />
  <D value="0" />
  <E value="0" />
  <Tmin units="K" value="255" />
  <Tmax units="K" value="1500" />
  </IdealGasHeatCapacityCp>
<SecondVirialCoefficient name="Second virial coefficient" units="m3/kmol">
  <eqno value="104" />
  <A value="0.19003" />
  <B value="-429.46" />
  <C value="-1.0046E+08" />
  <D value="-3.253E+20" />
  <E value="4.4672E+22" />
  <Tmin units="K" value="340" />
  <Tmax units="K" value="1500" />
  </SecondVirialCoefficient>
<LiquidViscosity name="Liquid viscosity" units="Pa.s">
  <eqno value="101" />
  <A value="-69.402" />
  <B value="5911.6" />
  <C value="7.9538" />
  <D value="0" />
  <E value="0" />
  <Tmin units="K" value="318.76" />
  <Tmax units="K" value="474.22" />
  </LiquidViscosity>
<VaporViscosity name="Vapour viscosity" units="Pa.s">
  <eqno value="102" />
  <A value="9.1785E-08" />
  <B value="0.80318" />
  <C value="103.41" />
  <D value="0" />
  <Tmin units="K" value="318.76" />
  <Tmax units="K" value="1000" />
  </VaporViscosity>
<LiquidThermalConductivity name="Liquid thermal conductivity" units="W/m/K">
  <eqno value="100" />
  <A value="0.22779" />
  <B value="-0.00023642" />
  <C value="0" />
  <D value="0" />
  <E value="0" />
  <Tmin units="K" value="318.76" />
  <Tmax units="K" value="560.32" />
  </LiquidThermalConductivity>
<VaporThermalConductivity name="Vapour thermal conductivity" units="W/m/K">
  <eqno value="102" />
  <A value="0.0001986" />
  <B value="0.9314" />
  <C value="717.4" />
  <D value="0" />
  <Tmin units="K" value="474.22" />
  <Tmax units="K" value="1000" />
  </VaporThermalConductivity>
<SurfaceTension name="Surface tension" units="N/m">
  <eqno value="106" />
  <A value="0.058488" />
  <B value="1.1687" />
  <C value="0" />
  <D value="0" />
  <E value="0" />
  <Tmin units="K" value="318.76" />
  <Tmax units="K" value="701.05" />
  </SurfaceTension>
<AntoineVaporPressure name="Antoine" units="Pa">
  <eqno value="10" />
  <A value="21.97966" />
  <B value="4316.278" />
  <C value="-61.32673" />
  <Tmin units="K" value="379.344" />
  <Tmax units="K" value="700.95" />
  </AntoineVaporPressure>
<FullerVolume name="Fuller et al. diffusion volume" units="_" value="138.11" />
<Charge name="Charge" units="_" value="0" />
<CostaldAcentricFactor name="SRK acentric factor" units="_" value="0.455406" />
<WilsonVolume name="Wilson volume" units="m3/kmol" value="0.137056" />
<UniquacR name="UNIQUAC r" units="_" value="5.0217" />
<UniquacQ name="UNIQUAC q" units="_" value="3.816" />
<ChaoSeaderAcentricFactor name="Chao-Seader acentric factor" units="_" value="0.455406" />
<ChaoSeaderSolubilityParameter name="Chao-Seader solubility parameter" units="J0.5/m1.5" value="19480" />
<ChaoSeaderLiquidVolume name="Chao-Seader liquid volume" units="m3/kmol" value="0.137056" />
<UnifacVLE name="UNIFAC">
  <group id="10" value="3" />
  <group id="12" value="2" />
  <group id="18" value="1" />
  </UnifacVLE>
<UnifacLLE name="UNIFAC-LLE">
  <group id="9" value="3" />
  <group id="11" value="2" />
  <group id="18" value="1" />
  </UnifacLLE>
<Asog name="ASOG">
  <group id="10" value="3" />
  <group id="11" value="2" />
  <group id="16" value="1" />
  </Asog>
<GCmethod name="PPR78">
  <group id="7" value="3" />
  <group id="8" value="2" />
  </GCmethod>
<Umr name="UMR">
  <group id="10" value="3" />
  <group id="12" value="2" />
  <group id="18" value="1" />
  </Umr>
<ModifiedUnifac name="Modified UNIFAC">
  <group id="9" value="3" />
  <group id="11" value="2" />
  <group id="17" value="1" />
  </ModifiedUnifac>
<CAS name="CAS number" value="576-26-1" />
<Smiles name="SMILES" value="Cc1cccc(c1O)C" />
</compound>

