<compound>
<LibraryIndex name="Index" value="2898" />
<CompoundID name="Name" value="2-chloroethanol" />
<StructureFormula name="Structure" value="CH2ClCH2OH" />
<Family name="Family" value="71" />
<CriticalTemperature name="Critical temperature" units="K" value="585" />
<CriticalPressure name="Critical pressure" units="Pa" value="5920000" />
<CriticalVolume name="Critical volume" units="m3/kmol" value="0.212" />
<CriticalCompressibility name="Critical compressibility factor" units="_" value="0.258" />
<NormalBoilingPointTemperature name="Normal boiling point" units="K" value="401.95" />
<NormalMeltingPointTemperature name="Melting point" units="K" value="204.15" />
<TriplePointTemperature name="Triple point temperature" units="K" value="205.65" />
<TriplePointPressure name="Triple point pressure" units="Pa" value="0.211961" />
<MolecularWeight name="Molecular weight" units="kg/kmol" value="80.5135" />
<LiquidVolumeAtNormalBoilingPoint name="Liquid molar volume at normal boiling point" units="m3/kmol" value="0.0673112" />
<AcentricityFactor name="Acentric factor" units="_" value="0.657799" />
<RadiusOfGyration name="Radius of gyration" units="m" value="2.779E-10" />
<SolubilityParameter name="Solubility parameter" units="J0.5/m1.5" value="25380" />
<DipoleMoment name="Dipole moment" units="Coulomb.m" value="5.93744E-30" />
<VanDerWaalsVolume name="Van der Waals volume" units="m3/kmol" value="0.04012" />
<VanDerWaalsArea name="Van der Waals area" units="m2/kmol" value="5.96E+08" />
<HeatOfFormation name="IG heat of formation" units="J/kmol" value="-2.58E+08" />
<GibbsEnergyOfFormation name="IG Gibbs energy of formation" units="J/kmol" value="-1.93E+08" />
<AbsEntropy name="IG absolute entropy" units="J/kmol/K" value="322000" />
<MatthiasCopemanC1 name="Mathias-Copeman C1" units="_" value="1.295985" />
<HeatOfCombustion name="Standard net heat of combustion LHV" units="J/kmol" value="-1.08E+09" />
<SolidDensity name="Solid density" units="kmol/m3">
  <eqno value="100" />
  <A value="20.444" />
  <B value="-0.012426" />
  <C value="0" />
  <D value="0" />
  <E value="0" />
  <Tmin units="K" value="82.26" />
  <Tmax units="K" value="205.65" />
  </SolidDensity>
<LiquidDensity name="Liquid density" units="kmol/m3">
  <eqno value="105" />
  <A value="1.234" />
  <B value="0.2616" />
  <C value="585" />
  <D value="0.21893" />
  <Tmin units="K" value="205.65" />
  <Tmax units="K" value="585" />
  </LiquidDensity>
<VaporPressure name="Vapour pressure" units="Pa">
  <eqno value="101" />
  <A value="38.367" />
  <B value="-6060.1" />
  <C value="-1.9621" />
  <D value="2.1867E-18" />
  <E value="6" />
  <Tmin units="K" value="205.65" />
  <Tmax units="K" value="585" />
  </VaporPressure>
<HeatOfVaporization name="Heat of vaporization" units="J/kmol">
  <eqno value="106" />
  <A value="5.34E+07" />
  <B value="0.2139" />
  <C value="0" />
  <D value="0" />
  <E value="0" />
  <Tmin units="K" value="205.65" />
  <Tmax units="K" value="585" />
  </HeatOfVaporization>
<LiquidHeatCapacityCp name="Liquid heat capacity" units="J/kmol/K">
  <eqno value="100" />
  <A value="48470" />
  <B value="206.6" />
  <C value="0" />
  <D value="0" />
  <E value="0" />
  <Tmin units="K" value="292.5" />
  <Tmax units="K" value="432.5" />
  </LiquidHeatCapacityCp>
<IdealGasHeatCapacityCp name="Ideal gas heat capacity" units="J/kmol/K">
  <eqno value="16" />
  <A value="42714.93" />
  <B value="-500" />
  <C value="12.07" />
  <D value="0" />
  <E value="0" />
  <Tmin units="K" value="255" />
  <Tmax units="K" value="1500" />
  </IdealGasHeatCapacityCp>
<SecondVirialCoefficient name="Second virial coefficient" units="m3/kmol">
  <eqno value="104" />
  <A value="0.020196" />
  <B value="48.19" />
  <C value="-7.323E+07" />
  <D value="1.3363E+21" />
  <E value="-5.0934E+23" />
  <Tmin units="K" value="292.5" />
  <Tmax units="K" value="2922.5" />
  </SecondVirialCoefficient>
<LiquidViscosity name="Liquid viscosity" units="Pa.s">
  <eqno value="101" />
  <A value="-44.294" />
  <B value="3703.3" />
  <C value="4.574" />
  <D value="0" />
  <E value="0" />
  <Tmin units="K" value="250" />
  <Tmax units="K" value="401.75" />
  </LiquidViscosity>
<VaporViscosity name="Vapour viscosity" units="Pa.s">
  <eqno value="102" />
  <A value="9.9644E-08" />
  <B value="0.6732" />
  <C value="207.07" />
  <D value="0" />
  <Tmin units="K" value="401.75" />
  <Tmax units="K" value="1000" />
  </VaporViscosity>
<LiquidThermalConductivity name="Liquid thermal conductivity" units="W/m/K">
  <eqno value="100" />
  <A value="0.20864" />
  <B value="-0.0002529" />
  <C value="0" />
  <D value="0" />
  <E value="0" />
  <Tmin units="K" value="205.65" />
  <Tmax units="K" value="401.75" />
  </LiquidThermalConductivity>
<VaporThermalConductivity name="Vapour thermal conductivity" units="W/m/K">
  <eqno value="102" />
  <A value="1803" />
  <B value="0.8314" />
  <C value="6.068E+09" />
  <D value="0" />
  <Tmin units="K" value="401.75" />
  <Tmax units="K" value="1000" />
  </VaporThermalConductivity>
<SurfaceTension name="Surface tension" units="N/m">
  <eqno value="106" />
  <A value="0.07508" />
  <B value="1.01" />
  <C value="0" />
  <D value="0" />
  <E value="0" />
  <Tmin units="K" value="205.65" />
  <Tmax units="K" value="585" />
  </SurfaceTension>
<AntoineVaporPressure name="Antoine" units="Pa">
  <eqno value="10" />
  <A value="20.68321" />
  <B value="4005.929" />
  <C value="-93.84657" />
  <Tmin units="K" value="321.56" />
  <Tmax units="K" value="585" />
  </AntoineVaporPressure>
<FullerVolume name="Fuller et al. diffusion volume" units="_" value="70.46" />
<MatthiasCopemanC2 name="Mathias-Copeman C2" units="_" value="0" />
<Parachor name="Parachor" units="kg0.25.m3/s0.5/kmol" value="0.0293416" />
<Charge name="Charge" units="_" value="0" />
<CostaldAcentricFactor name="SRK acentric factor" units="_" value="0.657799" />
<WilsonVolume name="Wilson volume" units="m3/kmol" value="0.0673112" />
<UniquacR name="UNIQUAC r" units="_" value="3.1398" />
<UniquacQ name="UNIQUAC q" units="_" value="3.004" />
<MatthiasCopemanC3 name="Mathias-Copeman C3" units="_" value="0" />
<ChaoSeaderAcentricFactor name="Chao-Seader acentric factor" units="_" value="0.657799" />
<ChaoSeaderSolubilityParameter name="Chao-Seader solubility parameter" units="J0.5/m1.5" value="25380" />
<ChaoSeaderLiquidVolume name="Chao-Seader liquid volume" units="m3/kmol" value="0.0673112" />
<UnifacVLE name="UNIFAC">
  <group id="2" value="1" />
  <group id="15" value="1" />
  <group id="45" value="1" />
  </UnifacVLE>
<UnifacLLE name="UNIFAC-LLE">
  <group id="2" value="1" />
  <group id="14" value="1" />
  <group id="31" value="1" />
  </UnifacLLE>
<Asog name="ASOG">
  <group id="2" value="1" />
  <group id="15" value="1" />
  <group id="23" value="1" />
  </Asog>
<GCmethod name="PPR78">
  <group id="2" value="1" />
  </GCmethod>
<Umr name="UMR">
  <group id="2" value="1" />
  <group id="15" value="1" />
  <group id="45" value="1" />
  </Umr>
<ModifiedUnifac name="Modified UNIFAC">
  <group id="2" value="1" />
  <group id="14" value="1" />
  <group id="44" value="1" />
  </ModifiedUnifac>
<CAS name="CAS number" value="107-07-3" />
<Smiles name="SMILES" value="ClCCO" />
</compound>

