<compound>
<LibraryIndex name="Index" value="576" />
<CompoundID name="Name" value="2-ethyl-m-xylene" />
<StructureFormula name="Structure" value="CH3CH2(C6H3)(CH3)2" />
<Family name="Family" value="17" />
<CriticalTemperature name="Critical temperature" units="K" value="670" />
<CriticalPressure name="Critical pressure" units="Pa" value="2960000" />
<CriticalVolume name="Critical volume" units="m3/kmol" value="0.446" />
<CriticalCompressibility name="Critical compressibility factor" units="_" value="0.261" />
<NormalBoilingPointTemperature name="Normal boiling point" units="K" value="463.19" />
<NormalMeltingPointTemperature name="Melting point" units="K" value="257" />
<TriplePointTemperature name="Triple point temperature" units="K" value="256.89" />
<TriplePointPressure name="Triple point pressure" units="Pa" value="2.81505" />
<MolecularWeight name="Molecular weight" units="kg/kmol" value="134.2182" />
<LiquidVolumeAtNormalBoilingPoint name="Liquid molar volume at normal boiling point" units="m3/kmol" value="0.151424" />
<AcentricityFactor name="Acentric factor" units="_" value="0.405" />
<RadiusOfGyration name="Radius of gyration" units="m" value="4.415E-10" />
<SolubilityParameter name="Solubility parameter" units="J0.5/m1.5" value="18140" />
<VanDerWaalsVolume name="Van der Waals volume" units="m3/kmol" value="0.0920399" />
<VanDerWaalsArea name="Van der Waals area" units="m2/kmol" value="1.161E+09" />
<HeatOfFormation name="IG heat of formation" units="J/kmol" value="-2.623E+07" />
<GibbsEnergyOfFormation name="IG Gibbs energy of formation" units="J/kmol" value="1.379E+08" />
<AbsEntropy name="IG absolute entropy" units="J/kmol/K" value="421000" />
<HeatOfFusionAtMeltingPoint name="Heat of fusion at melting point" units="J/kmol" value="1.471E+07" />
<MatthiasCopemanC1 name="Mathias-Copeman C1" units="_" value="1.2603" />
<HeatOfCombustion name="Standard net heat of combustion LHV" units="J/kmol" value="-5.548E+09" />
<SolidDensity name="Solid density" units="kmol/m3">
  <eqno value="2" />
  <A value="8.6854" />
  <B value="-0.0037546" />
  <C value="0" />
  <D value="0" />
  <E value="0" />
  <Tmin units="K" value="102.76" />
  <Tmax units="K" value="256.89" />
  </SolidDensity>
<LiquidDensity name="Liquid density" units="kmol/m3">
  <eqno value="105" />
  <A value="0.55372" />
  <B value="0.25979" />
  <C value="670" />
  <D value="0.29804" />
  <Tmin units="K" value="256.89" />
  <Tmax units="K" value="649.2" />
  </LiquidDensity>
<VaporPressure name="Vapour pressure" units="Pa">
  <eqno value="101" />
  <A value="101.54" />
  <B value="-9425" />
  <C value="-11.552" />
  <D value="0.0000057989" />
  <E value="2" />
  <Tmin units="K" value="256.89" />
  <Tmax units="K" value="671" />
  </VaporPressure>
<HeatOfVaporization name="Heat of vaporization" units="J/kmol">
  <eqno value="106" />
  <A value="8.2672E+07" />
  <B value="1.1027" />
  <C value="-0.68529" />
  <D value="-0.33367" />
  <E value="0.36103" />
  <Tmin units="K" value="256.89" />
  <Tmax units="K" value="649.2" />
  </HeatOfVaporization>
<SolidHeatCapacityCp name="Solid heat capacity" units="J/kmol/K">
  <eqno value="100" />
  <A value="23735" />
  <B value="400.93" />
  <C value="5.6" />
  <D value="-0.033991" />
  <E value="0.000064505" />
  <Tmin units="K" value="50" />
  <Tmax units="K" value="256.89" />
  </SolidHeatCapacityCp>
<LiquidHeatCapacityCp name="Liquid heat capacity" units="J/kmol/K">
  <eqno value="16" />
  <A value="77646" />
  <B value="-101.26" />
  <C value="11.392" />
  <D value="0.0045401" />
  <E value="-0.0000038677" />
  <Tmin units="K" value="298.15" />
  <Tmax units="K" value="463.19" />
  </LiquidHeatCapacityCp>
<IdealGasHeatCapacityCp name="Ideal gas heat capacity" units="J/kmol/K">
  <eqno value="16" />
  <A value="80902" />
  <B value="-471.57" />
  <C value="13.059" />
  <D value="0.00022749" />
  <E value="-9.0171E-08" />
  <Tmin units="K" value="273" />
  <Tmax units="K" value="1500" />
  </IdealGasHeatCapacityCp>
<SecondVirialCoefficient name="Second virial coefficient" units="m3/kmol">
  <eqno value="104" />
  <A value="0.35368" />
  <B value="-470.21" />
  <C value="-86.839" />
  <D value="-88080" />
  <E value="193440" />
  <Tmin units="K" value="335" />
  <Tmax units="K" value="1500" />
  </SecondVirialCoefficient>
<LiquidViscosity name="Liquid viscosity" units="Pa.s">
  <eqno value="101" />
  <A value="-15.587" />
  <B value="1737.4" />
  <C value="0.54173" />
  <D value="-0.0000007502" />
  <E value="2" />
  <Tmin units="K" value="256.89" />
  <Tmax units="K" value="573" />
  </LiquidViscosity>
<VaporViscosity name="Vapour viscosity" units="Pa.s">
  <eqno value="102" />
  <A value="0.0000044354" />
  <B value="0.29008" />
  <C value="895.67" />
  <D value="100.88" />
  <Tmin units="K" value="256.89" />
  <Tmax units="K" value="1000" />
  </VaporViscosity>
<LiquidThermalConductivity name="Liquid thermal conductivity" units="W/m/K">
  <eqno value="16" />
  <A value="-0.038284" />
  <B value="-32.06" />
  <C value="-1.2755" />
  <D value="-0.0012699" />
  <E value="-0.0000004068" />
  <Tmin units="K" value="256.89" />
  <Tmax units="K" value="463.19" />
  </LiquidThermalConductivity>
<VaporThermalConductivity name="Vapour thermal conductivity" units="W/m/K">
  <eqno value="102" />
  <A value="0.000097738" />
  <B value="1.031" />
  <C value="536.66" />
  <D value="42862" />
  <Tmin units="K" value="256.89" />
  <Tmax units="K" value="1000" />
  </VaporThermalConductivity>
<SurfaceTension name="Surface tension" units="N/m">
  <eqno value="16" />
  <A value="-0.0078769" />
  <B value="272" />
  <C value="-4.9636" />
  <D value="0.0055943" />
  <E value="-0.0000090797" />
  <Tmin units="K" value="256.89" />
  <Tmax units="K" value="649.2" />
  </SurfaceTension>
<RPPHeatCapacityCp name="Ideal gas heat capacity (RPP)" units="J/kmol/K">
  <eqno value="4" />
  <A value="-18638" />
  <B value="815.63" />
  <C value="-0.4908" />
  <D value="0.00011128" />
  <Tmin units="K" value="273" />
  <Tmax units="K" value="1500" />
  </RPPHeatCapacityCp>
<AntoineVaporPressure name="Antoine" units="Pa">
  <eqno value="10" />
  <A value="21.219" />
  <B value="3842.2" />
  <C value="-66.846" />
  <Tmin units="K" value="406.45" />
  <Tmax units="K" value="600" />
  </AntoineVaporPressure>
<LiquidViscosityRPS name="Liquid viscosity (RPS)" units="Pa.s">
  <eqno value="12" />
  <A value="-2.7285" />
  <B value="-0.013322" />
  <Tmin units="K" value="256.89" />
  <Tmax units="K" value="463.19" />
  </LiquidViscosityRPS>
<COSTALDVolume name="COSTLD characteristic volume (V*)" units="m3/kmol" value="0.507256" />
<DiameterLJ name="Lennard Jones diameter" units="m" value="7.145862E-10" />
<EnergyLJ name="Lennard Jones energy" units="K" value="347.4512" />
<RacketParameter name="Rackett parameter" units="_" value="0.261" />
<FullerVolume name="Fuller et al. diffusion volume" units="_" value="173.04" />
<MatthiasCopemanC2 name="Mathias-Copeman C2" units="_" value="-1.0844" />
<Parachor name="Parachor" units="kg0.25.m3/s0.5/kmol" value="0.0649154" />
<SpecificGravity name="Specific gravity" units="_" value="0.894889" />
<Charge name="Charge" units="_" value="0" />
<CostaldAcentricFactor name="SRK acentric factor" units="_" value="0.405" />
<WilsonVolume name="Wilson volume" units="m3/kmol" value="0.151424" />
<UniquacR name="UNIQUAC r" units="_" value="6.0672" />
<UniquacQ name="UNIQUAC q" units="_" value="4.644" />
<MatthiasCopemanC3 name="Mathias-Copeman C3" units="_" value="1.8602" />
<ChaoSeaderAcentricFactor name="Chao-Seader acentric factor" units="_" value="0.405" />
<ChaoSeaderSolubilityParameter name="Chao-Seader solubility parameter" units="J0.5/m1.5" value="18140" />
<ChaoSeaderLiquidVolume name="Chao-Seader liquid volume" units="m3/kmol" value="0.151424" />
<UnifacVLE name="UNIFAC">
  <group id="1" value="1" />
  <group id="10" value="3" />
  <group id="12" value="2" />
  <group id="13" value="1" />
  </UnifacVLE>
<UnifacLLE name="UNIFAC-LLE">
  <group id="1" value="1" />
  <group id="9" value="3" />
  <group id="11" value="2" />
  <group id="12" value="1" />
  </UnifacLLE>
<Asog name="ASOG">
  <group id="1" value="3" />
  <group id="2" value="1" />
  <group id="10" value="3" />
  <group id="11" value="3" />
  </Asog>
<GCmethod name="PPR78">
  <group id="1" value="3" />
  <group id="7" value="3" />
  <group id="8" value="3" />
  <group id="2" value="1" />
  </GCmethod>
<Umr name="UMR">
  <group id="1" value="1" />
  <group id="10" value="3" />
  <group id="12" value="2" />
  <group id="13" value="1" />
  </Umr>
<ModifiedUnifac name="Modified UNIFAC">
  <group id="1" value="1" />
  <group id="9" value="3" />
  <group id="11" value="2" />
  <group id="12" value="1" />
  </ModifiedUnifac>
<CAS name="CAS number" value="2870-04-4" />
<Smiles name="SMILES" value="c1(C)c(CC)c(C)ccc1" />
</compound>

