<compound>
<LibraryIndex name="Index" value="1063" />
<CompoundID name="Name" value="2-heptanone" />
<StructureFormula name="Structure" value="CH3CO(CH2)4CH3" />
<Family name="Family" value="26" />
<CriticalTemperature name="Critical temperature" units="K" value="611.55" />
<CriticalPressure name="Critical pressure" units="Pa" value="2920000" />
<CriticalVolume name="Critical volume" units="m3/kmol" value="0.421" />
<CriticalCompressibility name="Critical compressibility factor" units="_" value="0.251" />
<NormalBoilingPointTemperature name="Normal boiling point" units="K" value="424.05" />
<NormalMeltingPointTemperature name="Melting point" units="K" value="238.15" />
<TriplePointTemperature name="Triple point temperature" units="K" value="238.15" />
<TriplePointPressure name="Triple point pressure" units="Pa" value="3.54477" />
<MolecularWeight name="Molecular weight" units="kg/kmol" value="114.1855" />
<LiquidVolumeAtNormalBoilingPoint name="Liquid molar volume at normal boiling point" units="m3/kmol" value="0.140675" />
<AcentricityFactor name="Acentric factor" units="_" value="0.418982" />
<RadiusOfGyration name="Radius of gyration" units="m" value="4.498E-10" />
<SolubilityParameter name="Solubility parameter" units="J0.5/m1.5" value="17400" />
<DipoleMoment name="Dipole moment" units="Coulomb.m" value="8.71E-30" />
<VanDerWaalsVolume name="Van der Waals volume" units="m3/kmol" value="0.07996" />
<VanDerWaalsArea name="Van der Waals area" units="m2/kmol" value="1.124E+09" />
<HeatOfFormation name="IG heat of formation" units="J/kmol" value="-3.00453E+08" />
<GibbsEnergyOfFormation name="IG Gibbs energy of formation" units="J/kmol" value="-1.21796E+08" />
<AbsEntropy name="IG absolute entropy" units="J/kmol/K" value="456893" />
<HeatOfFusionAtMeltingPoint name="Heat of fusion at melting point" units="J/kmol" value="1.84E+07" />
<MatthiasCopemanC1 name="Mathias-Copeman C1" units="_" value="1.1875" />
<HeatOfCombustion name="Standard net heat of combustion LHV" units="J/kmol" value="-4.09952E+09" />
<SolidDensity name="Solid density" units="kmol/m3">
  <eqno value="2" />
  <A value="9.5843" />
  <B value="-0.0044928" />
  <C value="0" />
  <D value="0" />
  <E value="0" />
  <Tmin units="K" value="95.26" />
  <Tmax units="K" value="238.15" />
  </SolidDensity>
<LiquidDensity name="Liquid density" units="kmol/m3">
  <eqno value="105" />
  <A value="0.42296" />
  <B value="0.21673" />
  <C value="611.55" />
  <D value="0.2517" />
  <Tmin units="K" value="238.15" />
  <Tmax units="K" value="611.4" />
  </LiquidDensity>
<VaporPressure name="Vapour pressure" units="Pa">
  <eqno value="101" />
  <A value="104.1321" />
  <B value="-8934.299" />
  <C value="-12.02629" />
  <D value="6.758209E-06" />
  <E value="2" />
  <Tmin units="K" value="238.15" />
  <Tmax units="K" value="611.4" />
  </VaporPressure>
<HeatOfVaporization name="Heat of vaporization" units="J/kmol">
  <eqno value="106" />
  <A value="6.522658E+07" />
  <B value="0.472207" />
  <C value="0.238382" />
  <D value="-0.54369" />
  <E value="0.222217" />
  <Tmin units="K" value="238.15" />
  <Tmax units="K" value="611.4" />
  </HeatOfVaporization>
<SolidHeatCapacityCp name="Solid heat capacity" units="J/kmol/K">
  <eqno value="100" />
  <A value="7238.3" />
  <B value="975.88" />
  <C value="-2.0519" />
  <D value="0.0057069" />
  <E value="-0.000007064" />
  <Tmin units="K" value="50" />
  <Tmax units="K" value="238.15" />
  </SolidHeatCapacityCp>
<LiquidHeatCapacityCp name="Liquid heat capacity" units="J/kmol/K">
  <eqno value="16" />
  <A value="168580" />
  <B value="759.37" />
  <C value="3.3604" />
  <D value="0.023088" />
  <E value="-0.000017848" />
  <Tmin units="K" value="238.15" />
  <Tmax units="K" value="490" />
  </LiquidHeatCapacityCp>
<IdealGasHeatCapacityCp name="Ideal gas heat capacity" units="J/kmol/K">
  <eqno value="16" />
  <A value="119760" />
  <B value="-702.71" />
  <C value="13.229" />
  <D value="-0.000074262" />
  <E value="-4.5595E-08" />
  <Tmin units="K" value="150" />
  <Tmax units="K" value="1200" />
  </IdealGasHeatCapacityCp>
<SecondVirialCoefficient name="Second virial coefficient" units="m3/kmol">
  <eqno value="104" />
  <A value="0.28693" />
  <B value="-334.98" />
  <C value="-80.089" />
  <D value="-38529" />
  <E value="52793" />
  <Tmin units="K" value="305.7" />
  <Tmax units="K" value="1955.78" />
  </SecondVirialCoefficient>
<LiquidViscosity name="Liquid viscosity" units="Pa.s">
  <eqno value="101" />
  <A value="-9.5709" />
  <B value="1186.6" />
  <C value="-0.30187" />
  <D value="0.0000013185" />
  <E value="2" />
  <Tmin units="K" value="250" />
  <Tmax units="K" value="511" />
  </LiquidViscosity>
<VaporViscosity name="Vapour viscosity" units="Pa.s">
  <eqno value="102" />
  <A value="1.5766E-07" />
  <B value="0.71212" />
  <C value="201.61" />
  <D value="-8396.4" />
  <Tmin units="K" value="238.15" />
  <Tmax units="K" value="1000" />
  </VaporViscosity>
<LiquidThermalConductivity name="Liquid thermal conductivity" units="W/m/K">
  <eqno value="16" />
  <A value="0.061916" />
  <B value="-162.99" />
  <C value="-0.59984" />
  <D value="-0.0044095" />
  <E value="-0.0000013415" />
  <Tmin units="K" value="238.15" />
  <Tmax units="K" value="424.05" />
  </LiquidThermalConductivity>
<VaporThermalConductivity name="Vapour thermal conductivity" units="W/m/K">
  <eqno value="102" />
  <A value="2047.3" />
  <B value="1.0324" />
  <C value="2.297E+10" />
  <D value="7.8096E+08" />
  <Tmin units="K" value="238.15" />
  <Tmax units="K" value="1000" />
  </VaporThermalConductivity>
<SurfaceTension name="Surface tension" units="N/m">
  <eqno value="16" />
  <A value="-0.006816" />
  <B value="130.1" />
  <C value="-4.0853" />
  <D value="0.0033192" />
  <E value="-0.0000084854" />
  <Tmin units="K" value="238.15" />
  <Tmax units="K" value="611.4" />
  </SurfaceTension>
<RPPHeatCapacityCp name="Ideal gas heat capacity (RPP)" units="J/kmol/K">
  <eqno value="4" />
  <A value="53177" />
  <B value="423.37" />
  <C value="-0.032339" />
  <D value="-0.000077198" />
  <Tmin units="K" value="150" />
  <Tmax units="K" value="1200" />
  </RPPHeatCapacityCp>
<RelativeStaticPermittivity name="Relative static permittivity" units="_">
  <eqno value="120" />
  <A value="-11.272" />
  <B value="-5975" />
  <C value="-35.85" />
  <Tmin units="K" value="275" />
  <Tmax units="K" value="445" />
  </RelativeStaticPermittivity>
<AntoineVaporPressure name="Antoine" units="Pa">
  <eqno value="10" />
  <A value="21.063" />
  <B value="3363.5" />
  <C value="-71.468" />
  <Tmin units="K" value="367" />
  <Tmax units="K" value="550" />
  </AntoineVaporPressure>
<LiquidViscosityRPS name="Liquid viscosity (RPS)" units="Pa.s">
  <eqno value="12" />
  <A value="-3.9476" />
  <B value="-0.010818" />
  <Tmin units="K" value="250" />
  <Tmax units="K" value="424.18" />
  </LiquidViscosityRPS>
<COSTALDVolume name="COSTLD characteristic volume (V*)" units="m3/kmol" value="0.434587" />
<DiameterLJ name="Lennard Jones diameter" units="m" value="7.34622E-10" />
<EnergyLJ name="Lennard Jones energy" units="K" value="275.531" />
<RacketParameter name="Rackett parameter" units="_" value="0.251" />
<FullerVolume name="Fuller et al. diffusion volume" units="_" value="149.75" />
<MatthiasCopemanC2 name="Mathias-Copeman C2" units="_" value="-0.64789" />
<Parachor name="Parachor" units="kg0.25.m3/s0.5/kmol" value="0.0563666" />
<SpecificGravity name="Specific gravity" units="_" value="0.820117" />
<Charge name="Charge" units="_" value="0" />
<CostaldAcentricFactor name="SRK acentric factor" units="_" value="0.418982" />
<WilsonVolume name="Wilson volume" units="m3/kmol" value="0.140675" />
<UniquacR name="UNIQUAC r" units="_" value="5.2711" />
<UniquacQ name="UNIQUAC q" units="_" value="4.496" />
<MatthiasCopemanC3 name="Mathias-Copeman C3" units="_" value="1.3304" />
<ChaoSeaderAcentricFactor name="Chao-Seader acentric factor" units="_" value="0.418982" />
<ChaoSeaderSolubilityParameter name="Chao-Seader solubility parameter" units="J0.5/m1.5" value="17400" />
<ChaoSeaderLiquidVolume name="Chao-Seader liquid volume" units="m3/kmol" value="0.140675" />
<UnifacVLE name="UNIFAC">
  <group id="1" value="1" />
  <group id="2" value="4" />
  <group id="19" value="1" />
  </UnifacVLE>
<UnifacLLE name="UNIFAC-LLE">
  <group id="1" value="1" />
  <group id="2" value="4" />
  <group id="19" value="1" />
  </UnifacLLE>
<Asog name="ASOG">
  <group id="1" value="2" />
  <group id="2" value="4" />
  <group id="18" value="1" />
  </Asog>
<Umr name="UMR">
  <group id="1" value="1" />
  <group id="2" value="4" />
  <group id="19" value="1" />
  </Umr>
<ModifiedUnifac name="Modified UNIFAC">
  <group id="1" value="1" />
  <group id="2" value="4" />
  <group id="18" value="1" />
  </ModifiedUnifac>
<CAS name="CAS number" value="110-43-0" />
<Smiles name="SMILES" value="CC(=O)CCCCC" />
</compound>

