<compound>
<LibraryIndex name="Index" value="1062" />
<CompoundID name="Name" value="2-hexanone" />
<StructureFormula name="Structure" value="CH3COCH2CH2CH2CH3" />
<Family name="Family" value="26" />
<CriticalTemperature name="Critical temperature" units="K" value="587" />
<CriticalPressure name="Critical pressure" units="Pa" value="3320000" />
<CriticalVolume name="Critical volume" units="m3/kmol" value="0.378" />
<CriticalCompressibility name="Critical compressibility factor" units="_" value="0.254" />
<NormalBoilingPointTemperature name="Normal boiling point" units="K" value="400.7" />
<NormalMeltingPointTemperature name="Melting point" units="K" value="217.35" />
<TriplePointTemperature name="Triple point temperature" units="K" value="217.35" />
<TriplePointPressure name="Triple point pressure" units="Pa" value="1.44559" />
<MolecularWeight name="Molecular weight" units="kg/kmol" value="100.1589" />
<LiquidVolumeAtNormalBoilingPoint name="Liquid molar volume at normal boiling point" units="m3/kmol" value="0.1241" />
<AcentricityFactor name="Acentric factor" units="_" value="0.393" />
<RadiusOfGyration name="Radius of gyration" units="m" value="4.093E-10" />
<SolubilityParameter name="Solubility parameter" units="J0.5/m1.5" value="17600" />
<DipoleMoment name="Dipole moment" units="Coulomb.m" value="8.94E-30" />
<VanDerWaalsVolume name="Van der Waals volume" units="m3/kmol" value="0.06973" />
<VanDerWaalsArea name="Van der Waals area" units="m2/kmol" value="9.89E+08" />
<HeatOfFormation name="IG heat of formation" units="J/kmol" value="-2.79826E+08" />
<GibbsEnergyOfFormation name="IG Gibbs energy of formation" units="J/kmol" value="-1.30081E+08" />
<AbsEntropy name="IG absolute entropy" units="J/kmol/K" value="417856" />
<HeatOfFusionAtMeltingPoint name="Heat of fusion at melting point" units="J/kmol" value="1.49E+07" />
<MatthiasCopemanC1 name="Mathias-Copeman C1" units="_" value="1.06376" />
<HeatOfCombustion name="Standard net heat of combustion LHV" units="J/kmol" value="-3.49E+09" />
<SolidDensity name="Solid density" units="kmol/m3">
  <eqno value="2" />
  <A value="11.083" />
  <B value="-0.0056905" />
  <C value="0" />
  <D value="0" />
  <E value="0" />
  <Tmin units="K" value="86.94" />
  <Tmax units="K" value="217.35" />
  </SolidDensity>
<LiquidDensity name="Liquid density" units="kmol/m3">
  <eqno value="105" />
  <A value="0.58528" />
  <B value="0.23872" />
  <C value="587.62" />
  <D value="0.26191" />
  <Tmin units="K" value="217.35" />
  <Tmax units="K" value="587.61" />
  </LiquidDensity>
<VaporPressure name="Vapour pressure" units="Pa">
  <eqno value="101" />
  <A value="81.22606" />
  <B value="-7467.987" />
  <C value="-8.650385" />
  <D value="4.736711E-06" />
  <E value="2" />
  <Tmin units="K" value="217.35" />
  <Tmax units="K" value="587.61" />
  </VaporPressure>
<HeatOfVaporization name="Heat of vaporization" units="J/kmol">
  <eqno value="106" />
  <A value="8.140665E+07" />
  <B value="1.724728" />
  <C value="-1.991428" />
  <D value="0.65901" />
  <E value="0.10235" />
  <Tmin units="K" value="217.35" />
  <Tmax units="K" value="568.12" />
  </HeatOfVaporization>
<SolidHeatCapacityCp name="Solid heat capacity" units="J/kmol/K">
  <eqno value="100" />
  <A value="5223.7" />
  <B value="839.15" />
  <C value="4.7323" />
  <D value="-0.068211" />
  <E value="0.00021333" />
  <Tmin units="K" value="39.76" />
  <Tmax units="K" value="217.69" />
  </SolidHeatCapacityCp>
<LiquidHeatCapacityCp name="Liquid heat capacity" units="J/kmol/K">
  <eqno value="16" />
  <A value="171430" />
  <B value="304.46" />
  <C value="6.7554" />
  <D value="0.010928" />
  <E value="-0.0000044198" />
  <Tmin units="K" value="217.35" />
  <Tmax units="K" value="460" />
  </LiquidHeatCapacityCp>
<IdealGasHeatCapacityCp name="Ideal gas heat capacity" units="J/kmol/K">
  <eqno value="16" />
  <A value="101950" />
  <B value="-647" />
  <C value="12.874" />
  <D value="0.00017699" />
  <E value="-1.3836E-07" />
  <Tmin units="K" value="200" />
  <Tmax units="K" value="1200" />
  </IdealGasHeatCapacityCp>
<SecondVirialCoefficient name="Second virial coefficient" units="m3/kmol">
  <eqno value="104" />
  <A value="0.24744" />
  <B value="-284.68" />
  <C value="-57.772" />
  <D value="-30750" />
  <E value="48339" />
  <Tmin units="K" value="293.8" />
  <Tmax units="K" value="1877.53" />
  </SecondVirialCoefficient>
<LiquidViscosity name="Liquid viscosity" units="Pa.s">
  <eqno value="101" />
  <A value="-9.5407" />
  <B value="1129.1" />
  <C value="-0.30673" />
  <D value="6.1273E-07" />
  <E value="2" />
  <Tmin units="K" value="217.35" />
  <Tmax units="K" value="473" />
  </LiquidViscosity>
<VaporViscosity name="Vapour viscosity" units="Pa.s">
  <eqno value="102" />
  <A value="1.7562E-07" />
  <B value="0.7037" />
  <C value="196.23" />
  <D value="-7085.8" />
  <Tmin units="K" value="217.35" />
  <Tmax units="K" value="1000" />
  </VaporViscosity>
<LiquidThermalConductivity name="Liquid thermal conductivity" units="W/m/K">
  <eqno value="16" />
  <A value="-0.0056603" />
  <B value="-27.398" />
  <C value="-1.2811" />
  <D value="-0.0017572" />
  <E value="-3.9285E-07" />
  <Tmin units="K" value="217.35" />
  <Tmax units="K" value="400.85" />
  </LiquidThermalConductivity>
<VaporThermalConductivity name="Vapour thermal conductivity" units="W/m/K">
  <eqno value="102" />
  <A value="-0.96934" />
  <B value="0.03859" />
  <C value="-1883.3" />
  <D value="-1.1142E+07" />
  <Tmin units="K" value="217.35" />
  <Tmax units="K" value="1000" />
  </VaporThermalConductivity>
<SurfaceTension name="Surface tension" units="N/m">
  <eqno value="16" />
  <A value="-0.0081399" />
  <B value="117.23" />
  <C value="-3.9614" />
  <D value="0.003099" />
  <E value="-0.0000084515" />
  <Tmin units="K" value="217.35" />
  <Tmax units="K" value="568.12" />
  </SurfaceTension>
<RPPHeatCapacityCp name="Ideal gas heat capacity (RPP)" units="J/kmol/K">
  <eqno value="100" />
  <A value="76044" />
  <B value="72.344" />
  <C value="0.89264" />
  <D value="-0.0012053" />
  <E value="4.7958E-07" />
  <Tmin units="K" value="200" />
  <Tmax units="K" value="1000" />
  </RPPHeatCapacityCp>
<AntoineVaporPressure name="Antoine" units="Pa">
  <eqno value="10" />
  <A value="21.044" />
  <B value="3173.6" />
  <C value="-67.224" />
  <Tmin units="K" value="353.76" />
  <Tmax units="K" value="525" />
  </AntoineVaporPressure>
<LiquidViscosityRPS name="Liquid viscosity (RPS)" units="Pa.s">
  <eqno value="12" />
  <A value="-3.3896" />
  <B value="-0.013212" />
  <Tmin units="K" value="217.35" />
  <Tmax units="K" value="400.7" />
  </LiquidViscosityRPS>
<COSTALDVolume name="COSTLD characteristic volume (V*)" units="m3/kmol" value="0.375336" />
<DiameterLJ name="Lennard Jones diameter" units="m" value="6.986748E-10" />
<EnergyLJ name="Lennard Jones energy" units="K" value="276.0277" />
<RacketParameter name="Rackett parameter" units="_" value="0.254" />
<FullerVolume name="Fuller et al. diffusion volume" units="_" value="129.23" />
<MatthiasCopemanC2 name="Mathias-Copeman C2" units="_" value="0" />
<Parachor name="Parachor" units="kg0.25.m3/s0.5/kmol" value="0.0492648" />
<SpecificGravity name="Specific gravity" units="_" value="0.81617" />
<Charge name="Charge" units="_" value="0" />
<CostaldAcentricFactor name="SRK acentric factor" units="_" value="0.393" />
<WilsonVolume name="Wilson volume" units="m3/kmol" value="0.1241" />
<UniquacR name="UNIQUAC r" units="_" value="4.5967" />
<UniquacQ name="UNIQUAC q" units="_" value="3.956" />
<MatthiasCopemanC3 name="Mathias-Copeman C3" units="_" value="0" />
<ChaoSeaderAcentricFactor name="Chao-Seader acentric factor" units="_" value="0.393" />
<ChaoSeaderSolubilityParameter name="Chao-Seader solubility parameter" units="J0.5/m1.5" value="17600" />
<ChaoSeaderLiquidVolume name="Chao-Seader liquid volume" units="m3/kmol" value="0.1241" />
<UnifacVLE name="UNIFAC">
  <group id="1" value="1" />
  <group id="2" value="3" />
  <group id="19" value="1" />
  </UnifacVLE>
<UnifacLLE name="UNIFAC-LLE">
  <group id="1" value="1" />
  <group id="2" value="3" />
  <group id="19" value="1" />
  </UnifacLLE>
<Asog name="ASOG">
  <group id="1" value="2" />
  <group id="2" value="3" />
  <group id="18" value="1" />
  </Asog>
<Umr name="UMR">
  <group id="1" value="1" />
  <group id="2" value="3" />
  <group id="19" value="1" />
  </Umr>
<ModifiedUnifac name="Modified UNIFAC">
  <group id="1" value="1" />
  <group id="2" value="3" />
  <group id="18" value="1" />
  </ModifiedUnifac>
<CAS name="CAS number" value="591-78-6" />
<Smiles name="SMILES" value="CC(=O)CCCC" />
</compound>

