<compound>
<LibraryIndex name="Index" value="20101" />
<CompoundID name="Name" value="2-methyl-2-heptanol" />
<StructureFormula name="Structure" value="(CH3)2(OH)C(CH2)4CH3" />
<Family name="Family" value="46" />
<CriticalTemperature name="Critical temperature" units="K" value="636.6534" />
<CriticalPressure name="Critical pressure" units="Pa" value="2716180" />
<CriticalVolume name="Critical volume" units="m3/kmol" value="0.48244" />
<CriticalCompressibility name="Critical compressibility factor" units="_" value="0.247551" />
<NormalBoilingPointTemperature name="Normal boiling point" units="K" value="467.6976" />
<MolecularWeight name="Molecular weight" units="kg/kmol" value="130.2279" />
<LiquidVolumeAtNormalBoilingPoint name="Liquid molar volume at normal boiling point" units="m3/kmol" value="0.15788" />
<AcentricityFactor name="Acentric factor" units="_" value="0.723562" />
<SolubilityParameter name="Solubility parameter" units="J0.5/m1.5" value="17397.3" />
<VanDerWaalsVolume name="Van der Waals volume" units="m3/kmol" value="0.100431" />
<VanDerWaalsArea name="Van der Waals area" units="m2/kmol" value="1.476E+09" />
<HeatOfFormation name="IG heat of formation" units="J/kmol" value="-1.238045" />
<GibbsEnergyOfFormation name="IG Gibbs energy of formation" units="J/kmol" value="-1.233886" />
<AbsEntropy name="IG absolute entropy" units="J/kmol/K" value="1322185" />
<HeatOfFusionAtMeltingPoint name="Heat of fusion at melting point" units="J/kmol" value="0" />
<HeatOfCombustion name="Standard net heat of combustion LHV" units="J/kmol" value="-5.204435" />
<VaporPressure name="Vapour pressure" units="Pa">
  <eqno value="200" />
  <A value="-10.016" />
  <B value="3.415" />
  <C value="-6.8543" />
  <D value="-4.7824" />
  <E value="2716200" />
  <Tmin units="K" value="327.39" />
  <Tmax units="K" value="636.65" />
  </VaporPressure>
<HeatOfVaporization name="Heat of vaporization" units="J/kmol">
  <eqno value="106" />
  <A value="7.9114E+07" />
  <B value="0.38" />
  <C value="0" />
  <D value="0" />
  <E value="0" />
  <Tmin units="K" value="327.39" />
  <Tmax units="K" value="636.65" />
  </HeatOfVaporization>
<SolidHeatCapacityCp name="Solid heat capacity" units="J/kmol/K">
  <eqno value="1" />
  <A value="236620" />
  <Tmin units="K" value="0" />
  <Tmax units="K" value="636.65" />
  </SolidHeatCapacityCp>
<IdealGasHeatCapacityCp name="Ideal gas heat capacity" units="J/kmol/K">
  <eqno value="16" />
  <A value="102178.9" />
  <B value="-500" />
  <C value="13.22948" />
  <D value="0" />
  <E value="0" />
  <Tmin units="K" value="255" />
  <Tmax units="K" value="1500" />
  </IdealGasHeatCapacityCp>
<VaporViscosity name="Vapour viscosity" units="Pa.s">
  <eqno value="2" />
  <A value="3.6537E-07" />
  <B value="1.4972E-08" />
  <Tmin units="K" value="467.7" />
  <Tmax units="K" value="1000" />
  </VaporViscosity>
<RPPHeatCapacityCp name="Ideal gas heat capacity (RPP)" units="J/kmol/K">
  <eqno value="4" />
  <A value="17097" />
  <B value="807.28" />
  <C value="-0.46601" />
  <D value="0.00010374" />
  <Tmin units="K" value="191" />
  <Tmax units="K" value="1500" />
  </RPPHeatCapacityCp>
<RelativeStaticPermittivity name="Relative static permittivity" units="_">
  <eqno value="120" />
  <A value="-4.258161" />
  <B value="-2650" />
  <C value="-15.9" />
  <Tmin units="K" value="274.15" />
  <Tmax units="K" value="444.15" />
  </RelativeStaticPermittivity>
<AntoineVaporPressure name="Antoine" units="Pa">
  <eqno value="10" />
  <A value="20.944" />
  <B value="3604" />
  <C value="-85.025" />
  <Tmin units="K" value="327.39" />
  <Tmax units="K" value="636.65" />
  </AntoineVaporPressure>
<COSTALDVolume name="COSTLD characteristic volume (V*)" units="m3/kmol" value="0.559662" />
<DiameterLJ name="Lennard Jones diameter" units="m" value="7.816203E-10" />
<EnergyLJ name="Lennard Jones energy" units="K" value="272.9022" />
<RacketParameter name="Rackett parameter" units="_" value="0.247551" />
<FullerVolume name="Fuller et al. diffusion volume" units="_" value="174.89" />
<Parachor name="Parachor" units="kg0.25.m3/s0.5/kmol" value="0.0547474" />
<SpecificGravity name="Specific gravity" units="_" value="0.82" />
<Charge name="Charge" units="_" value="0" />
<CostaldAcentricFactor name="SRK acentric factor" units="_" value="0.723562" />
<WilsonVolume name="Wilson volume" units="m3/kmol" value="0.15788" />
<UniquacR name="UNIQUAC r" units="_" value="6.6204" />
<UniquacQ name="UNIQUAC q" units="_" value="5.904" />
<ChaoSeaderAcentricFactor name="Chao-Seader acentric factor" units="_" value="0.723562" />
<ChaoSeaderSolubilityParameter name="Chao-Seader solubility parameter" units="J0.5/m1.5" value="17397.3" />
<ChaoSeaderLiquidVolume name="Chao-Seader liquid volume" units="m3/kmol" value="0.15788" />
<UnifacVLE name="UNIFAC">
  <group id="1" value="3" />
  <group id="15" value="1" />
  <group id="4" value="1" />
  <group id="2" value="4" />
  </UnifacVLE>
<UnifacLLE name="UNIFAC-LLE">
  <group id="1" value="3" />
  <group id="14" value="1" />
  <group id="4" value="1" />
  <group id="2" value="4" />
  </UnifacLLE>
<Asog name="ASOG">
  <group id="1" value="3" />
  <group id="2" value="4" />
  <group id="4" value="1" />
  <group id="15" value="1" />
  </Asog>
<Umr name="UMR">
  <group id="1" value="3" />
  <group id="15" value="1" />
  <group id="4" value="1" />
  <group id="2" value="4" />
  </Umr>
<ModifiedUnifac name="Modified UNIFAC">
  <group id="1" value="3" />
  <group id="2" value="4" />
  <group id="4" value="1" />
  <group id="81" value="1" />
  </ModifiedUnifac>
<CAS name="CAS number" value="625-25-2" />
<Smiles name="SMILES" value="CCCCCC(C)(C)O" />
</compound>

