<compound>
<LibraryIndex name="Index" value="28" />
<CompoundID name="Name" value="2-methylheptane" />
<StructureFormula name="Structure" value="(CH3)2CH(CH2)4CH3" />
<Family name="Family" value="2" />
<CriticalTemperature name="Critical temperature" units="K" value="559.6" />
<CriticalPressure name="Critical pressure" units="Pa" value="2480000" />
<CriticalVolume name="Critical volume" units="m3/kmol" value="0.4882" />
<CriticalCompressibility name="Critical compressibility factor" units="_" value="0.26" />
<NormalBoilingPointTemperature name="Normal boiling point" units="K" value="390.8" />
<NormalMeltingPointTemperature name="Melting point" units="K" value="164.16" />
<TriplePointTemperature name="Triple point temperature" units="K" value="164.16" />
<TriplePointPressure name="Triple point pressure" units="Pa" value="0.0010587" />
<MolecularWeight name="Molecular weight" units="kg/kmol" value="114.2285" />
<LiquidVolumeAtNormalBoilingPoint name="Liquid molar volume at normal boiling point" units="m3/kmol" value="0.16463" />
<AcentricityFactor name="Acentric factor" units="_" value="0.378" />
<RadiusOfGyration name="Radius of gyration" units="m" value="4.57E-10" />
<SolubilityParameter name="Solubility parameter" units="J0.5/m1.5" value="15050" />
<DipoleMoment name="Dipole moment" units="Coulomb.m" value="0" />
<VanDerWaalsVolume name="Van der Waals volume" units="m3/kmol" value="0.08871" />
<VanDerWaalsArea name="Van der Waals area" units="m2/kmol" value="1.233E+09" />
<HeatOfFormation name="IG heat of formation" units="J/kmol" value="-2.154E+08" />
<GibbsEnergyOfFormation name="IG Gibbs energy of formation" units="J/kmol" value="1.18E+07" />
<AbsEntropy name="IG absolute entropy" units="J/kmol/K" value="459570" />
<HeatOfFusionAtMeltingPoint name="Heat of fusion at melting point" units="J/kmol" value="1.1878E+07" />
<MatthiasCopemanC1 name="Mathias-Copeman C1" units="_" value="1.0962" />
<HeatOfCombustion name="Standard net heat of combustion LHV" units="J/kmol" value="-5.06933E+09" />
<SolidDensity name="Solid density" units="kmol/m3">
  <eqno value="2" />
  <A value="8.7811" />
  <B value="-0.005901" />
  <C value="0" />
  <D value="0" />
  <E value="0" />
  <Tmin units="K" value="65.66" />
  <Tmax units="K" value="164.16" />
  </SolidDensity>
<LiquidDensity name="Liquid density" units="kmol/m3">
  <eqno value="105" />
  <A value="0.40246" />
  <B value="0.22797" />
  <C value="559.66" />
  <D value="0.23428" />
  <Tmin units="K" value="164.15" />
  <Tmax units="K" value="559.65" />
  </LiquidDensity>
<VaporPressure name="Vapour pressure" units="Pa">
  <eqno value="101" />
  <A value="97.9971" />
  <B value="-7746.664" />
  <C value="-11.37588" />
  <D value="8.143433E-06" />
  <E value="2" />
  <Tmin units="K" value="164.16" />
  <Tmax units="K" value="559.7" />
  </VaporPressure>
<HeatOfVaporization name="Heat of vaporization" units="J/kmol">
  <eqno value="106" />
  <A value="6.657838E+07" />
  <B value="1.352117" />
  <C value="-1.871983" />
  <D value="1.354613" />
  <E value="-0.391149" />
  <Tmin units="K" value="164.16" />
  <Tmax units="K" value="544" />
  </HeatOfVaporization>
<SolidHeatCapacityCp name="Solid heat capacity" units="J/kmol/K">
  <eqno value="100" />
  <A value="-18952" />
  <B value="1822.8" />
  <C value="-7.7108" />
  <D value="0.011722" />
  <E value="0.000030044" />
  <Tmin units="K" value="18" />
  <Tmax units="K" value="164.19" />
  </SolidHeatCapacityCp>
<LiquidHeatCapacityCp name="Liquid heat capacity" units="J/kmol/K">
  <eqno value="16" />
  <A value="66821" />
  <B value="33.207" />
  <C value="11.285" />
  <D value="0.0021902" />
  <E value="8.6142E-07" />
  <Tmin units="K" value="164" />
  <Tmax units="K" value="530" />
  </LiquidHeatCapacityCp>
<IdealGasHeatCapacityCp name="Ideal gas heat capacity" units="J/kmol/K">
  <eqno value="16" />
  <A value="108850" />
  <B value="-612.4" />
  <C value="13.327" />
  <D value="-0.0000091854" />
  <E value="-2.9587E-09" />
  <Tmin units="K" value="150" />
  <Tmax units="K" value="1500" />
  </IdealGasHeatCapacityCp>
<SecondVirialCoefficient name="Second virial coefficient" units="m3/kmol">
  <eqno value="104" />
  <A value="0.27395" />
  <B value="-342.75" />
  <C value="-53.371" />
  <D value="-19390" />
  <E value="42045" />
  <Tmin units="K" value="279.82" />
  <Tmax units="K" value="1785.82" />
  </SecondVirialCoefficient>
<LiquidViscosity name="Liquid viscosity" units="Pa.s">
  <eqno value="101" />
  <A value="-7.3762" />
  <B value="968.16" />
  <C value="-0.65227" />
  <D value="0.0000018143" />
  <E value="2" />
  <Tmin units="K" value="164.16" />
  <Tmax units="K" value="423.15" />
  </LiquidViscosity>
<VaporViscosity name="Vapour viscosity" units="Pa.s">
  <eqno value="102" />
  <A value="4.5347E-07" />
  <B value="0.55194" />
  <C value="231.19" />
  <D value="-1256.6" />
  <Tmin units="K" value="164.16" />
  <Tmax units="K" value="1000" />
  </VaporViscosity>
<LiquidThermalConductivity name="Liquid thermal conductivity" units="W/m/K">
  <eqno value="16" />
  <A value="-0.00038221" />
  <B value="38.981" />
  <C value="-2.075" />
  <D value="0.00062625" />
  <E value="-0.0000038423" />
  <Tmin units="K" value="164.15" />
  <Tmax units="K" value="503.15" />
  </LiquidThermalConductivity>
<VaporThermalConductivity name="Vapour thermal conductivity" units="W/m/K">
  <eqno value="102" />
  <A value="0.000048089" />
  <B value="1.0964" />
  <C value="-142.76" />
  <D value="170130" />
  <Tmin units="K" value="164.16" />
  <Tmax units="K" value="1000" />
  </VaporThermalConductivity>
<SurfaceTension name="Surface tension" units="N/m">
  <eqno value="16" />
  <A value="-0.014212" />
  <B value="12.912" />
  <C value="-2.9385" />
  <D value="-0.00062163" />
  <E value="-0.0000032482" />
  <Tmin units="K" value="164.16" />
  <Tmax units="K" value="538.88" />
  </SurfaceTension>
<RPPHeatCapacityCp name="Ideal gas heat capacity (RPP)" units="J/kmol/K">
  <eqno value="100" />
  <A value="43709" />
  <B value="342.46" />
  <C value="0.80975" />
  <D value="-0.0013047" />
  <E value="5.4626E-07" />
  <Tmin units="K" value="200" />
  <Tmax units="K" value="1000" />
  </RPPHeatCapacityCp>
<AntoineVaporPressure name="Antoine" units="Pa">
  <eqno value="10" />
  <A value="20.942" />
  <B value="3153.9" />
  <C value="-55.828" />
  <Tmin units="K" value="336.84" />
  <Tmax units="K" value="503.2" />
  </AntoineVaporPressure>
<LiquidViscosityRPS name="Liquid viscosity (RPS)" units="Pa.s">
  <eqno value="12" />
  <A value="-2.8962" />
  <B value="-0.015367" />
  <Tmin units="K" value="164.16" />
  <Tmax units="K" value="423.15" />
  </LiquidViscosityRPS>
<COSTALDVolume name="COSTLD characteristic volume (V*)" units="m3/kmol" value="0.486909" />
<DiameterLJ name="Lennard Jones diameter" units="m" value="7.398487E-10" />
<EnergyLJ name="Lennard Jones energy" units="K" value="286.2166" />
<RacketParameter name="Rackett parameter" units="_" value="0.26" />
<FullerVolume name="Fuller et al. diffusion volume" units="_" value="168.78" />
<MatthiasCopemanC2 name="Mathias-Copeman C2" units="_" value="-0.42249" />
<Parachor name="Parachor" units="kg0.25.m3/s0.5/kmol" value="0.0616339" />
<SpecificGravity name="Specific gravity" units="_" value="0.702794" />
<Charge name="Charge" units="_" value="0" />
<CostaldAcentricFactor name="SRK acentric factor" units="_" value="0.378" />
<WilsonVolume name="Wilson volume" units="m3/kmol" value="0.16463" />
<UniquacR name="UNIQUAC r" units="_" value="5.8478" />
<UniquacQ name="UNIQUAC q" units="_" value="4.932" />
<ApiSrkS2 name="API-SRK s2" units="_" value="-0.002094" />
<MatthiasCopemanC3 name="Mathias-Copeman C3" units="_" value="0.83669" />
<ChaoSeaderAcentricFactor name="Chao-Seader acentric factor" units="_" value="0.378" />
<ChaoSeaderSolubilityParameter name="Chao-Seader solubility parameter" units="J0.5/m1.5" value="15050" />
<ChaoSeaderLiquidVolume name="Chao-Seader liquid volume" units="m3/kmol" value="0.16463" />
<UnifacVLE name="UNIFAC">
  <group id="1" value="3" />
  <group id="2" value="4" />
  <group id="3" value="1" />
  </UnifacVLE>
<UnifacLLE name="UNIFAC-LLE">
  <group id="1" value="3" />
  <group id="2" value="4" />
  <group id="3" value="1" />
  </UnifacLLE>
<Asog name="ASOG">
  <group id="1" value="3" />
  <group id="2" value="4" />
  <group id="3" value="1" />
  </Asog>
<GCmethod name="PPR78">
  <group id="1" value="3" />
  <group id="2" value="4" />
  <group id="3" value="1" />
  </GCmethod>
<Umr name="UMR">
  <group id="1" value="3" />
  <group id="2" value="4" />
  <group id="3" value="1" />
  </Umr>
<ModifiedUnifac name="Modified UNIFAC">
  <group id="1" value="3" />
  <group id="2" value="4" />
  <group id="3" value="1" />
  </ModifiedUnifac>
<CAS name="CAS number" value="592-27-8" />
<Smiles name="SMILES" value="CC(C)CCCCC" />
</compound>

