<compound>
<LibraryIndex name="Index" value="1111" />
<CompoundID name="Name" value="2-methyl-2-butanol" />
<StructureFormula name="Structure" value="CH3CH2C(CH3)(OH)CH3" />
<Family name="Family" value="46" />
<CriticalTemperature name="Critical temperature" units="K" value="545" />
<CriticalPressure name="Critical pressure" units="Pa" value="3790000" />
<CriticalVolume name="Critical volume" units="m3/kmol" value="0.323" />
<CriticalCompressibility name="Critical compressibility factor" units="_" value="0.27" />
<NormalBoilingPointTemperature name="Normal boiling point" units="K" value="375.15" />
<NormalMeltingPointTemperature name="Melting point" units="K" value="264.35" />
<TriplePointTemperature name="Triple point temperature" units="K" value="264.35" />
<TriplePointPressure name="Triple point pressure" units="Pa" value="161.196" />
<MolecularWeight name="Molecular weight" units="kg/kmol" value="88.14818" />
<LiquidVolumeAtNormalBoilingPoint name="Liquid molar volume at normal boiling point" units="m3/kmol" value="0.1095" />
<AcentricityFactor name="Acentric factor" units="_" value="0.478" />
<RadiusOfGyration name="Radius of gyration" units="m" value="3.359E-10" />
<SolubilityParameter name="Solubility parameter" units="J0.5/m1.5" value="20840" />
<DipoleMoment name="Dipole moment" units="Coulomb.m" value="5.67E-30" />
<VanDerWaalsVolume name="Van der Waals volume" units="m3/kmol" value="0.06261" />
<VanDerWaalsArea name="Van der Waals area" units="m2/kmol" value="9.17E+08" />
<HeatOfFormation name="IG heat of formation" units="J/kmol" value="-3.297E+08" />
<GibbsEnergyOfFormation name="IG Gibbs energy of formation" units="J/kmol" value="-1.652E+08" />
<AbsEntropy name="IG absolute entropy" units="J/kmol/K" value="362800" />
<HeatOfFusionAtMeltingPoint name="Heat of fusion at melting point" units="J/kmol" value="4456000" />
<MatthiasCopemanC1 name="Mathias-Copeman C1" units="_" value="0.78274" />
<HeatOfCombustion name="Standard net heat of combustion LHV" units="J/kmol" value="-3.0391E+09" />
<SolidDensity name="Solid density" units="kmol/m3">
  <eqno value="2" />
  <A value="12.041" />
  <B value="-0.0051748" />
  <Tmin units="K" value="105.74" />
  <Tmax units="K" value="264.35" />
  </SolidDensity>
<LiquidDensity name="Liquid density" units="kmol/m3">
  <eqno value="105" />
  <A value="0.71131" />
  <B value="0.24603" />
  <C value="545" />
  <D value="0.25077" />
  <Tmin units="K" value="264.35" />
  <Tmax units="K" value="529" />
  </LiquidDensity>
<VaporPressure name="Vapour pressure" units="Pa">
  <eqno value="101" />
  <A value="111.96" />
  <B value="-9620.4" />
  <C value="-12.673" />
  <D value="0.0000022964" />
  <E value="2" />
  <Tmin units="K" value="264.35" />
  <Tmax units="K" value="543.7" />
  </VaporPressure>
<HeatOfVaporization name="Heat of vaporization" units="J/kmol">
  <eqno value="106" />
  <A value="1.022286E+08" />
  <B value="1.245977" />
  <C value="-0.515176" />
  <D value="-0.350588" />
  <E value="0.262112" />
  <Tmin units="K" value="264.35" />
  <Tmax units="K" value="543.7" />
  </HeatOfVaporization>
<SolidHeatCapacityCp name="Solid heat capacity" units="J/kmol/K">
  <eqno value="100" />
  <A value="-3330500" />
  <B value="79184" />
  <C value="-676.61" />
  <D value="2.5428" />
  <E value="-0.0035268" />
  <Tmin units="K" value="152.5" />
  <Tmax units="K" value="214.3" />
  </SolidHeatCapacityCp>
<LiquidHeatCapacityCp name="Liquid heat capacity" units="J/kmol/K">
  <eqno value="16" />
  <A value="145240" />
  <B value="-80.948" />
  <C value="10.283" />
  <D value="0.0042992" />
  <E value="0.0000021924" />
  <Tmin units="K" value="264.35" />
  <Tmax units="K" value="375.15" />
  </LiquidHeatCapacityCp>
<IdealGasHeatCapacityCp name="Ideal gas heat capacity" units="J/kmol/K">
  <eqno value="16" />
  <A value="74328" />
  <B value="-529.61" />
  <C value="12.79" />
  <D value="0.000073612" />
  <E value="-9.0525E-09" />
  <Tmin units="K" value="273" />
  <Tmax units="K" value="1200.15" />
  </IdealGasHeatCapacityCp>
<SecondVirialCoefficient name="Second virial coefficient" units="m3/kmol">
  <eqno value="104" />
  <A value="0.2317" />
  <B value="-245.23" />
  <C value="-25.84" />
  <D value="30078" />
  <E value="-127780" />
  <Tmin units="K" value="271.85" />
  <Tmax units="K" value="1500" />
  </SecondVirialCoefficient>
<LiquidViscosity name="Liquid viscosity" units="Pa.s">
  <eqno value="101" />
  <A value="-783.84" />
  <B value="31606" />
  <C value="120.39" />
  <D value="-0.00015466" />
  <E value="2" />
  <Tmin units="K" value="263.15" />
  <Tmax units="K" value="434.96" />
  </LiquidViscosity>
<VaporViscosity name="Vapour viscosity" units="Pa.s">
  <eqno value="102" />
  <A value="1.8945E-07" />
  <B value="0.71394" />
  <C value="173.97" />
  <D value="-1855.4" />
  <Tmin units="K" value="264.35" />
  <Tmax units="K" value="1000" />
  </VaporViscosity>
<LiquidThermalConductivity name="Liquid thermal conductivity" units="W/m/K">
  <eqno value="16" />
  <A value="0.052544" />
  <B value="-120.78" />
  <C value="-0.20746" />
  <D value="-0.0081579" />
  <E value="0.0000039201" />
  <Tmin units="K" value="163.55" />
  <Tmax units="K" value="433.55" />
  </LiquidThermalConductivity>
<VaporThermalConductivity name="Vapour thermal conductivity" units="W/m/K">
  <eqno value="102" />
  <A value="1156.2" />
  <B value="0.93842" />
  <C value="5.9829E+09" />
  <D value="-1.5337E+11" />
  <Tmin units="K" value="264.35" />
  <Tmax units="K" value="1000" />
  </VaporThermalConductivity>
<SurfaceTension name="Surface tension" units="N/m">
  <eqno value="16" />
  <A value="-0.004975" />
  <B value="709.64" />
  <C value="-10.143" />
  <D value="0.02288" />
  <E value="-0.000029901" />
  <Tmin units="K" value="264.35" />
  <Tmax units="K" value="543.7" />
  </SurfaceTension>
<RPPHeatCapacityCp name="Ideal gas heat capacity (RPP)" units="J/kmol/K">
  <eqno value="100" />
  <A value="35603" />
  <B value="226.55" />
  <C value="0.55283" />
  <D value="-0.00088824" />
  <E value="3.7199E-07" />
  <Tmin units="K" value="298" />
  <Tmax units="K" value="1000" />
  </RPPHeatCapacityCp>
<AntoineVaporPressure name="Antoine" units="Pa">
  <eqno value="10" />
  <A value="20.923" />
  <B value="2458.2" />
  <C value="-113.51" />
  <Tmin units="K" value="328.15" />
  <Tmax units="K" value="484.89" />
  </AntoineVaporPressure>
<LiquidViscosityRPS name="Liquid viscosity (RPS)" units="Pa.s">
  <eqno value="13" />
  <A value="19.92" />
  <B value="-0.12833" />
  <C value="0.0001442" />
  <Tmin units="K" value="263.15" />
  <Tmax units="K" value="434.96" />
  </LiquidViscosityRPS>
<COSTALDVolume name="COSTLD characteristic volume (V*)" units="m3/kmol" value="0.335173" />
<DiameterLJ name="Lennard Jones diameter" units="m" value="6.161351E-10" />
<EnergyLJ name="Lennard Jones energy" units="K" value="319.315" />
<RacketParameter name="Rackett parameter" units="_" value="0.264615" />
<FullerVolume name="Fuller et al. diffusion volume" units="_" value="113.33" />
<MatthiasCopemanC2 name="Mathias-Copeman C2" units="_" value="3.08387" />
<Parachor name="Parachor" units="kg0.25.m3/s0.5/kmol" value="0.0428" />
<SpecificGravity name="Specific gravity" units="_" value="0.813536" />
<Charge name="Charge" units="_" value="0" />
<CostaldAcentricFactor name="SRK acentric factor" units="_" value="0.478" />
<WilsonVolume name="Wilson volume" units="m3/kmol" value="0.1095" />
<UniquacR name="UNIQUAC r" units="_" value="4.5972" />
<UniquacQ name="UNIQUAC q" units="_" value="4.284" />
<MatthiasCopemanC3 name="Mathias-Copeman C3" units="_" value="-4.0988" />
<ChaoSeaderAcentricFactor name="Chao-Seader acentric factor" units="_" value="0.478" />
<ChaoSeaderSolubilityParameter name="Chao-Seader solubility parameter" units="J0.5/m1.5" value="20840" />
<ChaoSeaderLiquidVolume name="Chao-Seader liquid volume" units="m3/kmol" value="0.1095" />
<UnifacVLE name="UNIFAC">
  <group id="1" value="3" />
  <group id="2" value="1" />
  <group id="4" value="1" />
  <group id="15" value="1" />
  </UnifacVLE>
<UnifacLLE name="UNIFAC-LLE">
  <group id="1" value="3" />
  <group id="2" value="1" />
  <group id="4" value="1" />
  <group id="14" value="1" />
  </UnifacLLE>
<Asog name="ASOG">
  <group id="1" value="3" />
  <group id="2" value="1" />
  <group id="4" value="1" />
  <group id="15" value="1" />
  </Asog>
<GCmethod name="PPR78">
  <group id="1" value="3" />
  <group id="2" value="1" />
  <group id="4" value="1" />
  <group id="41" value="1" />
  </GCmethod>
<Umr name="UMR">
  <group id="1" value="3" />
  <group id="2" value="1" />
  <group id="4" value="1" />
  <group id="15" value="1" />
  </Umr>
<ModifiedUnifac name="Modified UNIFAC">
  <group id="1" value="3" />
  <group id="2" value="1" />
  <group id="4" value="1" />
  <group id="14" value="1" />
  </ModifiedUnifac>
<CAS name="CAS number" value="75-85-4" />
<Smiles name="SMILES" value="CCC(C)(C)O" />
</compound>

