<compound>
<LibraryIndex name="Index" value="20952" />
<CompoundID name="Name" value="2-methyl-1-undecene" />
<StructureFormula name="Structure" value="C12H24" />
<Family name="Family" value="11" />
<CriticalTemperature name="Critical temperature" units="K" value="657.9143" />
<CriticalPressure name="Critical pressure" units="Pa" value="1778664" />
<CriticalVolume name="Critical volume" units="m3/kmol" value="0.68364" />
<CriticalCompressibility name="Critical compressibility factor" units="_" value="0.222289" />
<NormalBoilingPointTemperature name="Normal boiling point" units="K" value="484.75" />
<MolecularWeight name="Molecular weight" units="kg/kmol" value="168.319" />
<LiquidVolumeAtNormalBoilingPoint name="Liquid molar volume at normal boiling point" units="m3/kmol" value="0.22264" />
<AcentricityFactor name="Acentric factor" units="_" value="0.512534" />
<RadiusOfGyration name="Radius of gyration" units="m" value="5.549001E-10" />
<SolubilityParameter name="Solubility parameter" units="J0.5/m1.5" value="13971.23" />
<VanDerWaalsVolume name="Van der Waals volume" units="m3/kmol" value="0.126134" />
<VanDerWaalsArea name="Van der Waals area" units="m2/kmol" value="1.751E+09" />
<HeatOfFormation name="IG heat of formation" units="J/kmol" value="6192318" />
<GibbsEnergyOfFormation name="IG Gibbs energy of formation" units="J/kmol" value="1.250024E+08" />
<AbsEntropy name="IG absolute entropy" units="J/kmol/K" value="1237040" />
<HeatOfCombustion name="Standard net heat of combustion LHV" units="J/kmol" value="-7.635552E+09" />
<IdealGasHeatCapacityCp name="Ideal gas heat capacity" units="J/kmol/K">
  <eqno value="16" />
  <A value="145641.2" />
  <B value="-474.3025" />
  <C value="13.32844" />
  <D value="0.000295521" />
  <E value="-9.753541E-08" />
  <Tmin units="K" value="197.3743" />
  <Tmax units="K" value="1500" />
  </IdealGasHeatCapacityCp>
<AntoineVaporPressure name="Antoine" units="Pa">
  <eqno value="10" />
  <A value="21.3757" />
  <B value="4042.234" />
  <C value="-74.354" />
  <Tmin units="K" value="359.41" />
  <Tmax units="K" value="656.53" />
  </AntoineVaporPressure>
<RacketParameter name="Rackett parameter" units="_" value="0.222289" />
<FullerVolume name="Fuller et al. diffusion volume" units="_" value="246.24" />
<Parachor name="Parachor" units="kg0.25.m3/s0.5/kmol" value="0.0889495" />
<SpecificGravity name="Specific gravity" units="_" value="0.881962" />
<Charge name="Charge" units="_" value="0" />
<UniquacR name="UNIQUAC r" units="_" value="8.314699" />
<UniquacQ name="UNIQUAC q" units="_" value="7.004" />
<UniquacQP name="UNIQUAC q'" units="_" value="7.004" />
<UnifacVLE name="UNIFAC">
  <group id="1" value="2" />
  <group id="2" value="8" />
  <group id="7" value="1" />
  </UnifacVLE>
<UnifacLLE name="UNIFAC-LLE">
  <group id="1" value="2" />
  <group id="2" value="8" />
  <group id="8" value="1" />
  </UnifacLLE>
<Asog name="ASOG">
  <group id="1" value="2" />
  <group id="2" value="8" />
  <group id="7" value="1" />
  </Asog>
<GCmethod name="PPR78">
  <group id="1" value="2" />
  <group id="2" value="9" />
  <group id="19" value="1" />
  </GCmethod>
<Umr name="UMR">
  <group id="1" value="2" />
  <group id="2" value="8" />
  <group id="7" value="1" />
  </Umr>
<ModifiedUnifac name="Modified UNIFAC">
  <group id="1" value="2" />
  <group id="2" value="8" />
  <group id="7" value="1" />
  </ModifiedUnifac>
<CAS name="CAS number" value="18516-37-5" />
<Smiles name="SMILES" value="C=C(C)CCCCCCCCC" />
</compound>

