<compound>
<LibraryIndex name="Index" value="91" />
<CompoundID name="Name" value="2-methyloctane" />
<StructureFormula name="Structure" value="(CH3)2CH(CH2)5CH3" />
<Family name="Family" value="2" />
<CriticalTemperature name="Critical temperature" units="K" value="587" />
<CriticalPressure name="Critical pressure" units="Pa" value="2310000" />
<CriticalVolume name="Critical volume" units="m3/kmol" value="0.529" />
<CriticalCompressibility name="Critical compressibility factor" units="_" value="0.25" />
<NormalBoilingPointTemperature name="Normal boiling point" units="K" value="416.44" />
<NormalMeltingPointTemperature name="Melting point" units="K" value="193.05" />
<TriplePointTemperature name="Triple point temperature" units="K" value="193.05" />
<TriplePointPressure name="Triple point pressure" units="Pa" value="0.0206" />
<MolecularWeight name="Molecular weight" units="kg/kmol" value="128.2551" />
<LiquidVolumeAtNormalBoilingPoint name="Liquid molar volume at normal boiling point" units="m3/kmol" value="0.18075" />
<AcentricityFactor name="Acentric factor" units="_" value="0.423" />
<RadiusOfGyration name="Radius of gyration" units="m" value="4.973E-10" />
<SolubilityParameter name="Solubility parameter" units="J0.5/m1.5" value="15310" />
<DipoleMoment name="Dipole moment" units="Coulomb.m" value="0" />
<VanDerWaalsVolume name="Van der Waals volume" units="m3/kmol" value="0.09894" />
<VanDerWaalsArea name="Van der Waals area" units="m2/kmol" value="1.368E+09" />
<HeatOfFormation name="IG heat of formation" units="J/kmol" value="-2.348E+08" />
<GibbsEnergyOfFormation name="IG Gibbs energy of formation" units="J/kmol" value="2.21E+07" />
<AbsEntropy name="IG absolute entropy" units="J/kmol/K" value="496800" />
<HeatOfFusionAtMeltingPoint name="Heat of fusion at melting point" units="J/kmol" value="1.8E+07" />
<MatthiasCopemanC1 name="Mathias-Copeman C1" units="_" value="1.15253" />
<HeatOfCombustion name="Standard net heat of combustion LHV" units="J/kmol" value="-5.6791E+09" />
<SolidDensity name="Solid density" units="kmol/m3">
  <eqno value="2" />
  <A value="7.7885" />
  <B value="-0.0045145" />
  <C value="0" />
  <D value="0" />
  <E value="0" />
  <Tmin units="K" value="68.52" />
  <Tmax units="K" value="193.05" />
  </SolidDensity>
<LiquidDensity name="Liquid density" units="kmol/m3">
  <eqno value="105" />
  <A value="0.048725" />
  <B value="0.083928" />
  <C value="587" />
  <D value="0.13299" />
  <Tmin units="K" value="193.05" />
  <Tmax units="K" value="582.87" />
  </LiquidDensity>
<VaporPressure name="Vapour pressure" units="Pa">
  <eqno value="101" />
  <A value="117.6637" />
  <B value="-9065.067" />
  <C value="-14.28093" />
  <D value="0.0000101806" />
  <E value="2" />
  <Tmin units="K" value="193.05" />
  <Tmax units="K" value="586.75" />
  </VaporPressure>
<HeatOfVaporization name="Heat of vaporization" units="J/kmol">
  <eqno value="106" />
  <A value="6.8687E+07" />
  <B value="1.3406" />
  <C value="-2.5809" />
  <D value="2.7985" />
  <E value="-1.1501" />
  <Tmin units="K" value="192.78" />
  <Tmax units="K" value="582.87" />
  </HeatOfVaporization>
<SolidHeatCapacityCp name="Solid heat capacity" units="J/kmol/K">
  <eqno value="100" />
  <A value="-25158" />
  <B value="2699" />
  <C value="-23.134" />
  <D value="0.12246" />
  <E value="-0.00024281" />
  <Tmin units="K" value="80" />
  <Tmax units="K" value="160" />
  </SolidHeatCapacityCp>
<LiquidHeatCapacityCp name="Liquid heat capacity" units="J/kmol/K">
  <eqno value="16" />
  <A value="69326" />
  <B value="112.91" />
  <C value="10.449" />
  <D value="0.0058606" />
  <E value="-0.0000035224" />
  <Tmin units="K" value="193" />
  <Tmax units="K" value="500" />
  </LiquidHeatCapacityCp>
<IdealGasHeatCapacityCp name="Ideal gas heat capacity" units="J/kmol/K">
  <eqno value="16" />
  <A value="145390" />
  <B value="-732.92" />
  <C value="13.658" />
  <D value="-0.00027343" />
  <E value="8.6186E-08" />
  <Tmin units="K" value="200" />
  <Tmax units="K" value="1500" />
  </IdealGasHeatCapacityCp>
<SecondVirialCoefficient name="Second virial coefficient" units="m3/kmol">
  <eqno value="104" />
  <A value="0.32232" />
  <B value="-409.91" />
  <C value="-67.241" />
  <D value="-24500" />
  <E value="45268" />
  <Tmin units="K" value="291.44" />
  <Tmax units="K" value="1877.38" />
  </SecondVirialCoefficient>
<LiquidViscosity name="Liquid viscosity" units="Pa.s">
  <eqno value="101" />
  <A value="-14.31" />
  <B value="1234.5" />
  <C value="0.50422" />
  <D value="-0.0000012054" />
  <E value="2" />
  <Tmin units="K" value="192.78" />
  <Tmax units="K" value="587" />
  </LiquidViscosity>
<VaporViscosity name="Vapour viscosity" units="Pa.s">
  <eqno value="102" />
  <A value="0.0000005318" />
  <B value="0.52649" />
  <C value="272.37" />
  <D value="-710.16" />
  <Tmin units="K" value="193.05" />
  <Tmax units="K" value="1000" />
  </VaporViscosity>
<LiquidThermalConductivity name="Liquid thermal conductivity" units="W/m/K">
  <eqno value="16" />
  <A value="-0.15278" />
  <B value="14.586" />
  <C value="-1.1974" />
  <D value="-0.00013887" />
  <E value="-9.4417E-07" />
  <Tmin units="K" value="193.05" />
  <Tmax units="K" value="466.03" />
  </LiquidThermalConductivity>
<VaporThermalConductivity name="Vapour thermal conductivity" units="W/m/K">
  <eqno value="102" />
  <A value="0.00002892" />
  <B value="1.1595" />
  <C value="-163.72" />
  <D value="160440" />
  <Tmin units="K" value="193.05" />
  <Tmax units="K" value="1000" />
  </VaporThermalConductivity>
<SurfaceTension name="Surface tension" units="N/m">
  <eqno value="16" />
  <A value="-0.0095148" />
  <B value="42.82" />
  <C value="-3.2759" />
  <D value="0.00028384" />
  <E value="-0.0000047898" />
  <Tmin units="K" value="193.05" />
  <Tmax units="K" value="582.87" />
  </SurfaceTension>
<RPPHeatCapacityCp name="Ideal gas heat capacity (RPP)" units="J/kmol/K">
  <eqno value="100" />
  <A value="49172" />
  <B value="391.1" />
  <C value="0.86362" />
  <D value="-0.0013874" />
  <E value="5.6971E-07" />
  <Tmin units="K" value="200" />
  <Tmax units="K" value="1000" />
  </RPPHeatCapacityCp>
<AntoineVaporPressure name="Antoine" units="Pa">
  <eqno value="10" />
  <A value="21.199" />
  <B value="3477.2" />
  <C value="-56.934" />
  <Tmin units="K" value="354.15" />
  <Tmax units="K" value="521.32" />
  </AntoineVaporPressure>
<LiquidViscosityRPS name="Liquid viscosity (RPS)" units="Pa.s">
  <eqno value="12" />
  <A value="-3.3429" />
  <B value="-0.012901" />
  <Tmin units="K" value="192.78" />
  <Tmax units="K" value="473.15" />
  </LiquidViscosityRPS>
<COSTALDVolume name="COSTLD characteristic volume (V*)" units="m3/kmol" value="0.550226" />
<DiameterLJ name="Lennard Jones diameter" units="m" value="7.965301E-10" />
<EnergyLJ name="Lennard Jones energy" units="K" value="260.6966" />
<RacketParameter name="Rackett parameter" units="_" value="0.25" />
<FullerVolume name="Fuller et al. diffusion volume" units="_" value="189.3" />
<MatthiasCopemanC2 name="Mathias-Copeman C2" units="_" value="0" />
<Parachor name="Parachor" units="kg0.25.m3/s0.5/kmol" value="0.0686142" />
<SpecificGravity name="Specific gravity" units="_" value="0.717479" />
<Charge name="Charge" units="_" value="0" />
<CostaldAcentricFactor name="SRK acentric factor" units="_" value="0.423" />
<WilsonVolume name="Wilson volume" units="m3/kmol" value="0.18075" />
<UniquacR name="UNIQUAC r" units="_" value="6.5222" />
<UniquacQ name="UNIQUAC q" units="_" value="5.472" />
<MatthiasCopemanC3 name="Mathias-Copeman C3" units="_" value="0" />
<ChaoSeaderAcentricFactor name="Chao-Seader acentric factor" units="_" value="0.423" />
<ChaoSeaderSolubilityParameter name="Chao-Seader solubility parameter" units="J0.5/m1.5" value="15310" />
<ChaoSeaderLiquidVolume name="Chao-Seader liquid volume" units="m3/kmol" value="0.18075" />
<UnifacVLE name="UNIFAC">
  <group id="1" value="3" />
  <group id="2" value="5" />
  <group id="3" value="1" />
  </UnifacVLE>
<UnifacLLE name="UNIFAC-LLE">
  <group id="1" value="3" />
  <group id="2" value="5" />
  <group id="3" value="1" />
  </UnifacLLE>
<Asog name="ASOG">
  <group id="1" value="3" />
  <group id="2" value="5" />
  <group id="3" value="1" />
  </Asog>
<GCmethod name="PPR78">
  <group id="1" value="3" />
  <group id="2" value="5" />
  <group id="3" value="1" />
  </GCmethod>
<Umr name="UMR">
  <group id="1" value="3" />
  <group id="2" value="5" />
  <group id="3" value="1" />
  </Umr>
<ModifiedUnifac name="Modified UNIFAC">
  <group id="1" value="3" />
  <group id="2" value="5" />
  <group id="3" value="1" />
  </ModifiedUnifac>
<CAS name="CAS number" value="3221-61-2" />
<Smiles name="SMILES" value="CC(C)CCCCCC" />
</compound>

