<compound>
<LibraryIndex name="Index" value="1763" />
<CompoundID name="Name" value="2-nitropropane" />
<StructureFormula name="Structure" value="CH3CH(NO2)CH3" />
<Family name="Family" value="39" />
<CriticalTemperature name="Critical temperature" units="K" value="595" />
<CriticalPressure name="Critical pressure" units="Pa" value="4450000" />
<CriticalVolume name="Critical volume" units="m3/kmol" value="0.288" />
<CriticalCompressibility name="Critical compressibility factor" units="_" value="0.26" />
<NormalBoilingPointTemperature name="Normal boiling point" units="K" value="393.4" />
<NormalMeltingPointTemperature name="Melting point" units="K" value="181.83" />
<TriplePointTemperature name="Triple point temperature" units="K" value="181.83" />
<TriplePointPressure name="Triple point pressure" units="Pa" value="0.021584" />
<MolecularWeight name="Molecular weight" units="kg/kmol" value="89.09318" />
<LiquidVolumeAtNormalBoilingPoint name="Liquid molar volume at normal boiling point" units="m3/kmol" value="0.0905535" />
<AcentricityFactor name="Acentric factor" units="_" value="0.383568" />
<RadiusOfGyration name="Radius of gyration" units="m" value="3.273E-10" />
<SolubilityParameter name="Solubility parameter" units="J0.5/m1.5" value="20530" />
<DipoleMoment name="Dipole moment" units="Coulomb.m" value="1.24E-29" />
<VanDerWaalsVolume name="Van der Waals volume" units="m3/kmol" value="0.05092" />
<VanDerWaalsArea name="Van der Waals area" units="m2/kmol" value="7.36E+08" />
<HeatOfFormation name="IG heat of formation" units="J/kmol" value="-1.39E+08" />
<GibbsEnergyOfFormation name="IG Gibbs energy of formation" units="J/kmol" value="-1.2803E+07" />
<AbsEntropy name="IG absolute entropy" units="J/kmol/K" value="347700" />
<HeatOfFusionAtMeltingPoint name="Heat of fusion at melting point" units="J/kmol" value="7790000" />
<HeatOfCombustion name="Standard net heat of combustion LHV" units="J/kmol" value="-1.846E+09" />
<SolidDensity name="Solid density" units="kmol/m3">
  <eqno value="2" />
  <A value="15.679" />
  <B value="-0.0096732" />
  <C value="0" />
  <D value="0" />
  <E value="0" />
  <Tmin units="K" value="72.73" />
  <Tmax units="K" value="181.83" />
  </SolidDensity>
<LiquidDensity name="Liquid density" units="kmol/m3">
  <eqno value="105" />
  <A value="0.27031" />
  <B value="0.13967" />
  <C value="595" />
  <D value="0.17588" />
  <Tmin units="K" value="181.83" />
  <Tmax units="K" value="594" />
  </LiquidDensity>
<VaporPressure name="Vapour pressure" units="Pa">
  <eqno value="101" />
  <A value="57.04038" />
  <B value="-6262.318" />
  <C value="-4.993807" />
  <D value="1.61213E-06" />
  <E value="2" />
  <Tmin units="K" value="181.83" />
  <Tmax units="K" value="594" />
  </VaporPressure>
<HeatOfVaporization name="Heat of vaporization" units="J/kmol">
  <eqno value="106" />
  <A value="5.543435E+07" />
  <B value="0.377393" />
  <C value="0.18894" />
  <D value="-0.0391329" />
  <E value="-0.243258" />
  <Tmin units="K" value="181.83" />
  <Tmax units="K" value="594" />
  </HeatOfVaporization>
<SolidHeatCapacityCp name="Solid heat capacity" units="J/kmol/K">
  <eqno value="1" />
  <A value="131170" />
  <Tmin units="K" value="0" />
  <Tmax units="K" value="595" />
  </SolidHeatCapacityCp>
<LiquidHeatCapacityCp name="Liquid heat capacity" units="J/kmol/K">
  <eqno value="16" />
  <A value="67863" />
  <B value="138.63" />
  <C value="8.8679" />
  <D value="0.01051" />
  <E value="-0.00001051" />
  <Tmin units="K" value="181.83" />
  <Tmax units="K" value="393.4" />
  </LiquidHeatCapacityCp>
<IdealGasHeatCapacityCp name="Ideal gas heat capacity" units="J/kmol/K">
  <eqno value="16" />
  <A value="58543" />
  <B value="-558.36" />
  <C value="12.559" />
  <D value="0.000040137" />
  <E value="-3.1383E-08" />
  <Tmin units="K" value="150" />
  <Tmax units="K" value="1500" />
  </IdealGasHeatCapacityCp>
<SecondVirialCoefficient name="Second virial coefficient" units="m3/kmol">
  <eqno value="104" />
  <A value="0.17935" />
  <B value="-204.53" />
  <C value="-50.86" />
  <D value="-56062" />
  <E value="103000" />
  <Tmin units="K" value="297" />
  <Tmax units="K" value="1899" />
  </SecondVirialCoefficient>
<LiquidViscosity name="Liquid viscosity" units="Pa.s">
  <eqno value="101" />
  <A value="-26.48" />
  <B value="1441.6" />
  <C value="2.6439" />
  <D value="-0.0000074647" />
  <E value="2" />
  <Tmin units="K" value="181.83" />
  <Tmax units="K" value="404" />
  </LiquidViscosity>
<VaporViscosity name="Vapour viscosity" units="Pa.s">
  <eqno value="102" />
  <A value="0.000005644" />
  <B value="0.32789" />
  <C value="1291.7" />
  <D value="6279.8" />
  <Tmin units="K" value="181.83" />
  <Tmax units="K" value="1000" />
  </VaporViscosity>
<LiquidThermalConductivity name="Liquid thermal conductivity" units="W/m/K">
  <eqno value="16" />
  <A value="0.085284" />
  <B value="-50.915" />
  <C value="-1.467" />
  <D value="-0.0035856" />
  <E value="-0.000001687" />
  <Tmin units="K" value="181.83" />
  <Tmax units="K" value="393.4" />
  </LiquidThermalConductivity>
<VaporThermalConductivity name="Vapour thermal conductivity" units="W/m/K">
  <eqno value="102" />
  <A value="0.0042281" />
  <B value="0.52696" />
  <C value="790.25" />
  <D value="431610" />
  <Tmin units="K" value="181.83" />
  <Tmax units="K" value="1000" />
  </VaporThermalConductivity>
<SurfaceTension name="Surface tension" units="N/m">
  <eqno value="16" />
  <A value="-0.015626" />
  <B value="18.663" />
  <C value="-2.7222" />
  <D value="-0.00050234" />
  <E value="-0.0000033626" />
  <Tmin units="K" value="181.83" />
  <Tmax units="K" value="594" />
  </SurfaceTension>
<RPPHeatCapacityCp name="Ideal gas heat capacity (RPP)" units="J/kmol/K">
  <eqno value="4" />
  <A value="7449" />
  <B value="381.45" />
  <C value="-0.20531" />
  <D value="0.000039841" />
  <Tmin units="K" value="150" />
  <Tmax units="K" value="1500" />
  </RPPHeatCapacityCp>
<AntoineVaporPressure name="Antoine" units="Pa">
  <eqno value="10" />
  <A value="21.572" />
  <B value="3562.3" />
  <C value="-38.858" />
  <Tmin units="K" value="363.15" />
  <Tmax units="K" value="528.92" />
  </AntoineVaporPressure>
<LiquidViscosityRPS name="Liquid viscosity (RPS)" units="Pa.s">
  <eqno value="12" />
  <A value="-2.9011" />
  <B value="-0.014208" />
  <Tmin units="K" value="181.83" />
  <Tmax units="K" value="393.4" />
  </LiquidViscosityRPS>
<COSTALDVolume name="COSTLD characteristic volume (V*)" units="m3/kmol" value="0.270821" />
<DiameterLJ name="Lennard Jones diameter" units="m" value="6.20499E-10" />
<EnergyLJ name="Lennard Jones energy" units="K" value="304.3226" />
<RacketParameter name="Rackett parameter" units="_" value="0.26" />
<FullerVolume name="Fuller et al. diffusion volume" units="_" value="80.63" />
<Parachor name="Parachor" units="kg0.25.m3/s0.5/kmol" value="0.0372943" />
<SpecificGravity name="Specific gravity" units="_" value="0.994733" />
<Charge name="Charge" units="_" value="0" />
<CostaldAcentricFactor name="SRK acentric factor" units="_" value="0.383568" />
<WilsonVolume name="Wilson volume" units="m3/kmol" value="0.0905535" />
<UniquacR name="UNIQUAC r" units="_" value="3.3573" />
<UniquacQ name="UNIQUAC q" units="_" value="2.948" />
<ChaoSeaderAcentricFactor name="Chao-Seader acentric factor" units="_" value="0.383568" />
<ChaoSeaderSolubilityParameter name="Chao-Seader solubility parameter" units="J0.5/m1.5" value="20530" />
<ChaoSeaderLiquidVolume name="Chao-Seader liquid volume" units="m3/kmol" value="0.0905535" />
<UnifacVLE name="UNIFAC">
  <group id="1" value="2" />
  <group id="57" value="1" />
  </UnifacVLE>
<UnifacLLE name="UNIFAC-LLE">
  <group id="1" value="1" />
  <group id="2" value="1" />
  <group id="45" value="1" />
  </UnifacLLE>
<Asog name="ASOG">
  <group id="1" value="2" />
  <group id="3" value="1" />
  <group id="33" value="1" />
  </Asog>
<Umr name="UMR">
  <group id="1" value="2" />
  <group id="57" value="1" />
  </Umr>
<ModifiedUnifac name="Modified UNIFAC">
  <group id="1" value="2" />
  <group id="56" value="1" />
  </ModifiedUnifac>
<CAS name="CAS number" value="79-46-9" />
<Smiles name="SMILES" value="CC(N(=O)=O)C" />
</compound>

