<compound>
<LibraryIndex name="Index" value="1110" />
<CompoundID name="Name" value="2-pentanol" />
<StructureFormula name="Structure" value="CH3(CH2)2CH(OH)CH3" />
<Family name="Family" value="46" />
<CriticalTemperature name="Critical temperature" units="K" value="552" />
<CriticalPressure name="Critical pressure" units="Pa" value="3880000" />
<CriticalVolume name="Critical volume" units="m3/kmol" value="0.327" />
<CriticalCompressibility name="Critical compressibility factor" units="_" value="0.26" />
<NormalBoilingPointTemperature name="Normal boiling point" units="K" value="392.15" />
<NormalMeltingPointTemperature name="Melting point" units="K" value="200" />
<TriplePointTemperature name="Triple point temperature" units="K" value="200" />
<TriplePointPressure name="Triple point pressure" units="Pa" value="0.00596587" />
<MolecularWeight name="Molecular weight" units="kg/kmol" value="88.14818" />
<LiquidVolumeAtNormalBoilingPoint name="Liquid molar volume at normal boiling point" units="m3/kmol" value="0.109448" />
<AcentricityFactor name="Acentric factor" units="_" value="0.674371" />
<RadiusOfGyration name="Radius of gyration" units="m" value="3.619E-10" />
<SolubilityParameter name="Solubility parameter" units="J0.5/m1.5" value="21700" />
<DipoleMoment name="Dipole moment" units="Coulomb.m" value="5.39E-30" />
<VanDerWaalsVolume name="Van der Waals volume" units="m3/kmol" value="0.06262" />
<VanDerWaalsArea name="Van der Waals area" units="m2/kmol" value="8.97E+08" />
<HeatOfFormation name="IG heat of formation" units="J/kmol" value="-3.138E+08" />
<GibbsEnergyOfFormation name="IG Gibbs energy of formation" units="J/kmol" value="-1.593E+08" />
<AbsEntropy name="IG absolute entropy" units="J/kmol/K" value="396400" />
<HeatOfFusionAtMeltingPoint name="Heat of fusion at melting point" units="J/kmol" value="8480000" />
<MatthiasCopemanC1 name="Mathias-Copeman C1" units="_" value="1.47" />
<HeatOfCombustion name="Standard net heat of combustion LHV" units="J/kmol" value="-3.0515E+09" />
<SolidDensity name="Solid density" units="kmol/m3">
  <eqno value="2" />
  <A value="11.7" />
  <B value="4.0224E-17" />
  <C value="0" />
  <D value="0" />
  <E value="0" />
  <Tmin units="K" value="0" />
  <Tmax units="K" value="9.5" />
  </SolidDensity>
<LiquidDensity name="Liquid density" units="kmol/m3">
  <eqno value="105" />
  <A value="1.319" />
  <B value="0.3371" />
  <C value="552" />
  <D value="0.32218" />
  <Tmin units="K" value="200" />
  <Tmax units="K" value="541.34" />
  </LiquidDensity>
<VaporPressure name="Vapour pressure" units="Pa">
  <eqno value="101" />
  <A value="156.6278" />
  <B value="-11701.22" />
  <C value="-19.61134" />
  <D value="0.0000119964" />
  <E value="2" />
  <Tmin units="K" value="200" />
  <Tmax units="K" value="560.3" />
  </VaporPressure>
<HeatOfVaporization name="Heat of vaporization" units="J/kmol">
  <eqno value="106" />
  <A value="8.4515E+07" />
  <B value="0.5603" />
  <C value="0.52669" />
  <D value="-1.3675" />
  <E value="0.83639" />
  <Tmin units="K" value="200" />
  <Tmax units="K" value="541.34" />
  </HeatOfVaporization>
<SolidHeatCapacityCp name="Solid heat capacity" units="J/kmol/K">
  <eqno value="1" />
  <A value="158590" />
  <Tmin units="K" value="0" />
  <Tmax units="K" value="552" />
  </SolidHeatCapacityCp>
<LiquidHeatCapacityCp name="Liquid heat capacity" units="J/kmol/K">
  <eqno value="16" />
  <A value="223900" />
  <B value="2827.9" />
  <C value="-24.806" />
  <D value="0.11426" />
  <E value="-0.00010479" />
  <Tmin units="K" value="276" />
  <Tmax units="K" value="420.22" />
  </LiquidHeatCapacityCp>
<IdealGasHeatCapacityCp name="Ideal gas heat capacity" units="J/kmol/K">
  <eqno value="16" />
  <A value="81533" />
  <B value="-562.17" />
  <C value="12.749" />
  <D value="0.00015514" />
  <E value="-6.2807E-08" />
  <Tmin units="K" value="273" />
  <Tmax units="K" value="1500.15" />
  </IdealGasHeatCapacityCp>
<SecondVirialCoefficient name="Second virial coefficient" units="m3/kmol">
  <eqno value="104" />
  <A value="0.24133" />
  <B value="-247.23" />
  <C value="-35.04" />
  <D value="43362" />
  <E value="-173350" />
  <Tmin units="K" value="280.15" />
  <Tmax units="K" value="1500" />
  </SecondVirialCoefficient>
<LiquidViscosity name="Liquid viscosity" units="Pa.s">
  <eqno value="101" />
  <A value="-161.5575" />
  <B value="9388.477" />
  <C value="22.02304" />
  <D value="-0.0000121894" />
  <E value="2" />
  <Tmin units="K" value="200" />
  <Tmax units="K" value="448.24" />
  </LiquidViscosity>
<VaporViscosity name="Vapour viscosity" units="Pa.s">
  <eqno value="102" />
  <A value="3.2586E-07" />
  <B value="0.63457" />
  <C value="242.49" />
  <D value="-572.84" />
  <Tmin units="K" value="200" />
  <Tmax units="K" value="1000" />
  </VaporViscosity>
<LiquidThermalConductivity name="Liquid thermal conductivity" units="W/m/K">
  <eqno value="16" />
  <A value="-0.29342" />
  <B value="50.682" />
  <C value="-1.2923" />
  <D value="0.0017888" />
  <E value="-0.0000028966" />
  <Tmin units="K" value="165.6" />
  <Tmax units="K" value="435.6" />
  </LiquidThermalConductivity>
<VaporThermalConductivity name="Vapour thermal conductivity" units="W/m/K">
  <eqno value="102" />
  <A value="1300.2" />
  <B value="0.95377" />
  <C value="8.1158E+09" />
  <D value="-2.9211E+11" />
  <Tmin units="K" value="200" />
  <Tmax units="K" value="1000" />
  </VaporThermalConductivity>
<SurfaceTension name="Surface tension" units="N/m">
  <eqno value="16" />
  <A value="-0.024272" />
  <B value="-6.3975" />
  <C value="-2.6095" />
  <D value="-0.0005545" />
  <E value="-0.0000026816" />
  <Tmin units="K" value="200" />
  <Tmax units="K" value="541.34" />
  </SurfaceTension>
<RPPHeatCapacityCp name="Ideal gas heat capacity (RPP)" units="J/kmol/K">
  <eqno value="4" />
  <A value="5418.5" />
  <B value="517.97" />
  <C value="-0.28727" />
  <D value="0.000060797" />
  <Tmin units="K" value="273" />
  <Tmax units="K" value="1500.15" />
  </RPPHeatCapacityCp>
<RelativeStaticPermittivity name="Relative static permittivity" units="_">
  <eqno value="120" />
  <A value="-12.96" />
  <B value="-6855" />
  <C value="-41.13" />
  <Tmin units="K" value="280" />
  <Tmax units="K" value="450" />
  </RelativeStaticPermittivity>
<AntoineVaporPressure name="Antoine" units="Pa">
  <eqno value="10" />
  <A value="21.365" />
  <B value="2787.1" />
  <C value="-109.05" />
  <Tmin units="K" value="332.74" />
  <Tmax units="K" value="484.45" />
  </AntoineVaporPressure>
<LiquidViscosityRPS name="Liquid viscosity (RPS)" units="Pa.s">
  <eqno value="12" />
  <A value="5.5268" />
  <B value="-0.036204" />
  <Tmin units="K" value="200" />
  <Tmax units="K" value="448.24" />
  </LiquidViscosityRPS>
<COSTALDVolume name="COSTLD characteristic volume (V*)" units="m3/kmol" value="0.335229" />
<DiameterLJ name="Lennard Jones diameter" units="m" value="6.473307E-10" />
<EnergyLJ name="Lennard Jones energy" units="K" value="282.3295" />
<RacketParameter name="Rackett parameter" units="_" value="0.26" />
<FullerVolume name="Fuller et al. diffusion volume" units="_" value="113.33" />
<MatthiasCopemanC2 name="Mathias-Copeman C2" units="_" value="0" />
<Parachor name="Parachor" units="kg0.25.m3/s0.5/kmol" value="0.0427674" />
<SpecificGravity name="Specific gravity" units="_" value="0.813156" />
<Charge name="Charge" units="_" value="0" />
<CostaldAcentricFactor name="SRK acentric factor" units="_" value="0.674371" />
<WilsonVolume name="Wilson volume" units="m3/kmol" value="0.109448" />
<UniquacR name="UNIQUAC r" units="_" value="4.5979" />
<UniquacQ name="UNIQUAC q" units="_" value="4.204" />
<MatthiasCopemanC3 name="Mathias-Copeman C3" units="_" value="0" />
<ChaoSeaderAcentricFactor name="Chao-Seader acentric factor" units="_" value="0.558707" />
<ChaoSeaderSolubilityParameter name="Chao-Seader solubility parameter" units="J0.5/m1.5" value="21700" />
<ChaoSeaderLiquidVolume name="Chao-Seader liquid volume" units="m3/kmol" value="0.109448" />
<UnifacVLE name="UNIFAC">
  <group id="1" value="2" />
  <group id="2" value="2" />
  <group id="3" value="1" />
  <group id="15" value="1" />
  </UnifacVLE>
<UnifacLLE name="UNIFAC-LLE">
  <group id="1" value="2" />
  <group id="2" value="2" />
  <group id="3" value="1" />
  <group id="14" value="1" />
  </UnifacLLE>
<Asog name="ASOG">
  <group id="1" value="2" />
  <group id="2" value="2" />
  <group id="3" value="1" />
  <group id="15" value="1" />
  </Asog>
<GCmethod name="PPR78">
  <group id="1" value="2" />
  <group id="2" value="2" />
  <group id="3" value="1" />
  <group id="41" value="1" />
  </GCmethod>
<Umr name="UMR">
  <group id="1" value="2" />
  <group id="2" value="2" />
  <group id="3" value="1" />
  <group id="15" value="1" />
  </Umr>
<ModifiedUnifac name="Modified UNIFAC">
  <group id="1" value="2" />
  <group id="2" value="2" />
  <group id="3" value="1" />
  <group id="81" value="1" />
  </ModifiedUnifac>
<CAS name="CAS number" value="6032-29-7" />
<Smiles name="SMILES" value="CCCC(O)C" />
</compound>

