<compound>
<LibraryIndex name="Index" value="50" />
<CompoundID name="Name" value="3,3-diethylpentane" />
<StructureFormula name="Structure" value="CH3CH2C(C2H5)2CH2CH3" />
<Family name="Family" value="4" />
<CriticalTemperature name="Critical temperature" units="K" value="610.05" />
<CriticalPressure name="Critical pressure" units="Pa" value="2674980" />
<CriticalVolume name="Critical volume" units="m3/kmol" value="0.473" />
<CriticalCompressibility name="Critical compressibility factor" units="_" value="0.249" />
<NormalBoilingPointTemperature name="Normal boiling point" units="K" value="419.34" />
<NormalMeltingPointTemperature name="Melting point" units="K" value="240.12" />
<TriplePointTemperature name="Triple point temperature" units="K" value="240.12" />
<TriplePointPressure name="Triple point pressure" units="Pa" value="13.7918" />
<MolecularWeight name="Molecular weight" units="kg/kmol" value="128.2551" />
<LiquidVolumeAtNormalBoilingPoint name="Liquid molar volume at normal boiling point" units="m3/kmol" value="0.171012" />
<AcentricityFactor name="Acentric factor" units="_" value="0.3379" />
<RadiusOfGyration name="Radius of gyration" units="m" value="4.314E-10" />
<SolubilityParameter name="Solubility parameter" units="J0.5/m1.5" value="15220" />
<DipoleMoment name="Dipole moment" units="Coulomb.m" value="0" />
<VanDerWaalsVolume name="Van der Waals volume" units="m3/kmol" value="0.09893" />
<VanDerWaalsArea name="Van der Waals area" units="m2/kmol" value="1.388E+09" />
<HeatOfFormation name="IG heat of formation" units="J/kmol" value="-2.31835E+08" />
<GibbsEnergyOfFormation name="IG Gibbs energy of formation" units="J/kmol" value="4.17E+07" />
<AbsEntropy name="IG absolute entropy" units="J/kmol/K" value="436500" />
<HeatOfFusionAtMeltingPoint name="Heat of fusion at melting point" units="J/kmol" value="9800000" />
<MatthiasCopemanC1 name="Mathias-Copeman C1" units="_" value="0.97551" />
<HeatOfCombustion name="Standard net heat of combustion LHV" units="J/kmol" value="-5.68438E+09" />
<SolidDensity name="Solid density" units="kmol/m3">
  <eqno value="2" />
  <A value="7.812" />
  <B value="-0.0035815" />
  <C value="0" />
  <D value="0" />
  <E value="0" />
  <Tmin units="K" value="96.05" />
  <Tmax units="K" value="240.12" />
  </SolidDensity>
<LiquidDensity name="Liquid density" units="kmol/m3">
  <eqno value="105" />
  <A value="0.61216" />
  <B value="0.28967" />
  <C value="610.05" />
  <D value="0.29325" />
  <Tmin units="K" value="240.12" />
  <Tmax units="K" value="610.05" />
  </LiquidDensity>
<VaporPressure name="Vapour pressure" units="Pa">
  <eqno value="101" />
  <A value="143.8917" />
  <B value="-9842.666" />
  <C value="-18.51396" />
  <D value="0.000016514" />
  <E value="2" />
  <Tmin units="K" value="240.12" />
  <Tmax units="K" value="610.05" />
  </VaporPressure>
<HeatOfVaporization name="Heat of vaporization" units="J/kmol">
  <eqno value="106" />
  <A value="5.0222E+07" />
  <B value="-0.028455" />
  <C value="0.90984" />
  <D value="-0.78409" />
  <E value="0.24027" />
  <Tmin units="K" value="240.12" />
  <Tmax units="K" value="610.05" />
  </HeatOfVaporization>
<SolidHeatCapacityCp name="Solid heat capacity" units="J/kmol/K">
  <eqno value="100" />
  <A value="-6779" />
  <B value="1486.6" />
  <C value="-4.3383" />
  <D value="0.0056081" />
  <E value="0.000012002" />
  <Tmin units="K" value="30" />
  <Tmax units="K" value="240.1" />
  </SolidHeatCapacityCp>
<LiquidHeatCapacityCp name="Liquid heat capacity" units="J/kmol/K">
  <eqno value="16" />
  <A value="167890" />
  <B value="37.678" />
  <C value="8.6605" />
  <D value="0.012988" />
  <E value="-0.000011813" />
  <Tmin units="K" value="240.1" />
  <Tmax units="K" value="419.34" />
  </LiquidHeatCapacityCp>
<IdealGasHeatCapacityCp name="Ideal gas heat capacity" units="J/kmol/K">
  <eqno value="16" />
  <A value="120540" />
  <B value="-563.25" />
  <C value="13.32" />
  <D value="0.00012473" />
  <E value="-3.6626E-08" />
  <Tmin units="K" value="150" />
  <Tmax units="K" value="1500" />
  </IdealGasHeatCapacityCp>
<SecondVirialCoefficient name="Second virial coefficient" units="m3/kmol">
  <eqno value="104" />
  <A value="0.26457" />
  <B value="-346.37" />
  <C value="-88.76" />
  <D value="-14602" />
  <E value="15928" />
  <Tmin units="K" value="240.12" />
  <Tmax units="K" value="2000" />
  </SecondVirialCoefficient>
<LiquidViscosity name="Liquid viscosity" units="Pa.s">
  <eqno value="101" />
  <A value="-12.975" />
  <B value="1131.8" />
  <C value="0.25767" />
  <D value="-3.4761E-07" />
  <E value="2" />
  <Tmin units="K" value="240.12" />
  <Tmax units="K" value="450" />
  </LiquidViscosity>
<VaporViscosity name="Vapour viscosity" units="Pa.s">
  <eqno value="102" />
  <A value="3.6575E-07" />
  <B value="0.57536" />
  <C value="184.44" />
  <D value="2017.7" />
  <Tmin units="K" value="419.34" />
  <Tmax units="K" value="1000" />
  </VaporViscosity>
<LiquidThermalConductivity name="Liquid thermal conductivity" units="W/m/K">
  <eqno value="16" />
  <A value="-0.021495" />
  <B value="-29.993" />
  <C value="-1.4603" />
  <D value="-0.0013716" />
  <E value="-7.6272E-07" />
  <Tmin units="K" value="240.12" />
  <Tmax units="K" value="419.34" />
  </LiquidThermalConductivity>
<VaporThermalConductivity name="Vapour thermal conductivity" units="W/m/K">
  <eqno value="102" />
  <A value="0.000069723" />
  <B value="1.0959" />
  <C value="342.29" />
  <D value="74930" />
  <Tmin units="K" value="240.12" />
  <Tmax units="K" value="999.34" />
  </VaporThermalConductivity>
<SurfaceTension name="Surface tension" units="N/m">
  <eqno value="16" />
  <A value="-0.09195" />
  <B value="-27.641" />
  <C value="-1.6687" />
  <D value="-0.001559" />
  <E value="7.4071E-07" />
  <Tmin units="K" value="240.12" />
  <Tmax units="K" value="610.05" />
  </SurfaceTension>
<RPPHeatCapacityCp name="Ideal gas heat capacity (RPP)" units="J/kmol/K">
  <eqno value="4" />
  <A value="13160" />
  <B value="797.17" />
  <C value="-0.3726" />
  <D value="0.000062998" />
  <Tmin units="K" value="150" />
  <Tmax units="K" value="1500" />
  </RPPHeatCapacityCp>
<AntoineVaporPressure name="Antoine" units="Pa">
  <eqno value="10" />
  <A value="20.726" />
  <B value="3317.6" />
  <C value="-58.699" />
  <Tmin units="K" value="373.64" />
  <Tmax units="K" value="532.17" />
  </AntoineVaporPressure>
<LiquidViscosityRPS name="Liquid viscosity (RPS)" units="Pa.s">
  <eqno value="12" />
  <A value="-4.5181" />
  <B value="-0.010538" />
  <Tmin units="K" value="240.12" />
  <Tmax units="K" value="419.34" />
  </LiquidViscosityRPS>
<COSTALDVolume name="COSTLD characteristic volume (V*)" units="m3/kmol" value="0.550163" />
<DiameterLJ name="Lennard Jones diameter" units="m" value="7.710682E-10" />
<EnergyLJ name="Lennard Jones energy" units="K" value="267.0522" />
<RacketParameter name="Rackett parameter" units="_" value="0.249" />
<FullerVolume name="Fuller et al. diffusion volume" units="_" value="189.3" />
<MatthiasCopemanC2 name="Mathias-Copeman C2" units="_" value="0" />
<Parachor name="Parachor" units="kg0.25.m3/s0.5/kmol" value="0.0660643" />
<SpecificGravity name="Specific gravity" units="_" value="0.757461" />
<Charge name="Charge" units="_" value="0" />
<CostaldAcentricFactor name="SRK acentric factor" units="_" value="0.3379" />
<WilsonVolume name="Wilson volume" units="m3/kmol" value="0.171012" />
<UniquacR name="UNIQUAC r" units="_" value="6.5215" />
<UniquacQ name="UNIQUAC q" units="_" value="5.552" />
<ApiSrkS2 name="API-SRK s2" units="_" value="-0.009265" />
<MatthiasCopemanC3 name="Mathias-Copeman C3" units="_" value="0" />
<ChaoSeaderAcentricFactor name="Chao-Seader acentric factor" units="_" value="0.3379" />
<ChaoSeaderSolubilityParameter name="Chao-Seader solubility parameter" units="J0.5/m1.5" value="15220" />
<ChaoSeaderLiquidVolume name="Chao-Seader liquid volume" units="m3/kmol" value="0.171012" />
<UnifacVLE name="UNIFAC">
  <group id="1" value="4" />
  <group id="2" value="4" />
  <group id="4" value="1" />
  </UnifacVLE>
<UnifacLLE name="UNIFAC-LLE">
  <group id="1" value="4" />
  <group id="2" value="4" />
  <group id="4" value="1" />
  </UnifacLLE>
<Asog name="ASOG">
  <group id="1" value="4" />
  <group id="2" value="4" />
  <group id="4" value="1" />
  </Asog>
<GCmethod name="PPR78">
  <group id="1" value="4" />
  <group id="2" value="4" />
  <group id="4" value="1" />
  </GCmethod>
<Umr name="UMR">
  <group id="1" value="4" />
  <group id="2" value="4" />
  <group id="4" value="1" />
  </Umr>
<ModifiedUnifac name="Modified UNIFAC">
  <group id="1" value="4" />
  <group id="2" value="4" />
  <group id="4" value="1" />
  </ModifiedUnifac>
<CAS name="CAS number" value="1067-20-5" />
<Smiles name="SMILES" value="CCC(CC)(CC)CC" />
</compound>

