<compound>
<LibraryIndex name="Index" value="1066" />
<CompoundID name="Name" value="3,3-dimethyl-2-butanone" />
<StructureFormula name="Structure" value="(CH3)3CCOCH3" />
<Family name="Family" value="26" />
<CriticalTemperature name="Critical temperature" units="K" value="567" />
<CriticalPressure name="Critical pressure" units="Pa" value="3470000" />
<CriticalVolume name="Critical volume" units="m3/kmol" value="0.368" />
<CriticalCompressibility name="Critical compressibility factor" units="_" value="0.261" />
<NormalBoilingPointTemperature name="Normal boiling point" units="K" value="379.45" />
<NormalMeltingPointTemperature name="Melting point" units="K" value="221.15" />
<TriplePointTemperature name="Triple point temperature" units="K" value="221.15" />
<TriplePointPressure name="Triple point pressure" units="Pa" value="14.4334" />
<MolecularWeight name="Molecular weight" units="kg/kmol" value="100.1589" />
<LiquidVolumeAtNormalBoilingPoint name="Liquid molar volume at normal boiling point" units="m3/kmol" value="0.124869" />
<AcentricityFactor name="Acentric factor" units="_" value="0.327309" />
<RadiusOfGyration name="Radius of gyration" units="m" value="3.643E-10" />
<SolubilityParameter name="Solubility parameter" units="J0.5/m1.5" value="16920" />
<DipoleMoment name="Dipole moment" units="Coulomb.m" value="9.37E-30" />
<VanDerWaalsVolume name="Van der Waals volume" units="m3/kmol" value="0.06971" />
<VanDerWaalsArea name="Van der Waals area" units="m2/kmol" value="1.008E+09" />
<HeatOfFormation name="IG heat of formation" units="J/kmol" value="-2.905E+08" />
<GibbsEnergyOfFormation name="IG Gibbs energy of formation" units="J/kmol" value="-1.307E+08" />
<AbsEntropy name="IG absolute entropy" units="J/kmol/K" value="384400" />
<HeatOfFusionAtMeltingPoint name="Heat of fusion at melting point" units="J/kmol" value="1.133E+07" />
<MatthiasCopemanC1 name="Mathias-Copeman C1" units="_" value="1.08969" />
<HeatOfCombustion name="Standard net heat of combustion LHV" units="J/kmol" value="-3.4837E+09" />
<SolidDensity name="Solid density" units="kmol/m3">
  <eqno value="100" />
  <A value="11.11" />
  <B value="-0.0062798" />
  <C value="0" />
  <D value="0" />
  <E value="0" />
  <Tmin units="K" value="88.46" />
  <Tmax units="K" value="221.15" />
  </SolidDensity>
<LiquidDensity name="Liquid density" units="kmol/m3">
  <eqno value="105" />
  <A value="0.050005" />
  <B value="0.070782" />
  <C value="567" />
  <D value="0.11676" />
  <Tmin units="K" value="221.15" />
  <Tmax units="K" value="564" />
  </LiquidDensity>
<VaporPressure name="Vapour pressure" units="Pa">
  <eqno value="101" />
  <A value="93.48771" />
  <B value="-7385.263" />
  <C value="-10.71444" />
  <D value="7.878115E-06" />
  <E value="2" />
  <Tmin units="K" value="221.15" />
  <Tmax units="K" value="565" />
  </VaporPressure>
<HeatOfVaporization name="Heat of vaporization" units="J/kmol">
  <eqno value="106" />
  <A value="5.0163E+07" />
  <B value="0.36416" />
  <C value="-0.10654" />
  <D value="0.27936" />
  <E value="-0.16414" />
  <Tmin units="K" value="221.15" />
  <Tmax units="K" value="564" />
  </HeatOfVaporization>
<SolidHeatCapacityCp name="Solid heat capacity" units="J/kmol/K">
  <eqno value="100" />
  <A value="-12892" />
  <B value="1715.9" />
  <C value="-11.85" />
  <D value="0.049444" />
  <E value="-0.000066905" />
  <Tmin units="K" value="11.42" />
  <Tmax units="K" value="215.13" />
  </SolidHeatCapacityCp>
<LiquidHeatCapacityCp name="Liquid heat capacity" units="J/kmol/K">
  <eqno value="16" />
  <A value="154180" />
  <B value="195.77" />
  <C value="7.7152" />
  <D value="0.0092036" />
  <E value="-0.0000029177" />
  <Tmin units="K" value="190" />
  <Tmax units="K" value="450" />
  </LiquidHeatCapacityCp>
<IdealGasHeatCapacityCp name="Ideal gas heat capacity" units="J/kmol/K">
  <eqno value="16" />
  <A value="104260" />
  <B value="-866.95" />
  <C value="13.572" />
  <D value="-0.00063607" />
  <E value="2.0716E-07" />
  <Tmin units="K" value="273" />
  <Tmax units="K" value="1200" />
  </IdealGasHeatCapacityCp>
<SecondVirialCoefficient name="Second virial coefficient" units="m3/kmol">
  <eqno value="104" />
  <A value="0.21862" />
  <B value="-246.98" />
  <C value="-51.298" />
  <D value="-13508" />
  <E value="12998" />
  <Tmin units="K" value="282" />
  <Tmax units="K" value="1500" />
  </SecondVirialCoefficient>
<LiquidViscosity name="Liquid viscosity" units="Pa.s">
  <eqno value="101" />
  <A value="-19.254" />
  <B value="1373.2" />
  <C value="1.3346" />
  <D value="-0.0000032641" />
  <E value="2" />
  <Tmin units="K" value="221.15" />
  <Tmax units="K" value="473" />
  </LiquidViscosity>
<VaporViscosity name="Vapour viscosity" units="Pa.s">
  <eqno value="102" />
  <A value="1.8869E-07" />
  <B value="0.70026" />
  <C value="190.78" />
  <D value="-6542.3" />
  <Tmin units="K" value="221.15" />
  <Tmax units="K" value="1000" />
  </VaporViscosity>
<LiquidThermalConductivity name="Liquid thermal conductivity" units="W/m/K">
  <eqno value="16" />
  <A value="-0.15399" />
  <B value="9.8963" />
  <C value="-1.0886" />
  <D value="-0.00030883" />
  <E value="-9.2007E-07" />
  <Tmin units="K" value="221.15" />
  <Tmax units="K" value="450" />
  </LiquidThermalConductivity>
<VaporThermalConductivity name="Vapour thermal conductivity" units="W/m/K">
  <eqno value="102" />
  <A value="1744.4" />
  <B value="1.0305" />
  <C value="1.6872E+10" />
  <D value="-1.3896E+11" />
  <Tmin units="K" value="221.15" />
  <Tmax units="K" value="1000" />
  </VaporThermalConductivity>
<SurfaceTension name="Surface tension" units="N/m">
  <eqno value="16" />
  <A value="-0.0051063" />
  <B value="135.01" />
  <C value="-4.5681" />
  <D value="0.0055635" />
  <E value="-0.000012777" />
  <Tmin units="K" value="221.15" />
  <Tmax units="K" value="564" />
  </SurfaceTension>
<RPPHeatCapacityCp name="Ideal gas heat capacity (RPP)" units="J/kmol/K">
  <eqno value="4" />
  <A value="-1641.8" />
  <B value="551.82" />
  <C value="-0.27948" />
  <D value="0.000048732" />
  <Tmin units="K" value="273" />
  <Tmax units="K" value="1200" />
  </RPPHeatCapacityCp>
<AntoineVaporPressure name="Antoine" units="Pa">
  <eqno value="10" />
  <A value="20.806" />
  <B value="2939.8" />
  <C value="-62.476" />
  <Tmin units="K" value="343.57" />
  <Tmax units="K" value="509.87" />
  </AntoineVaporPressure>
<LiquidViscosityRPS name="Liquid viscosity (RPS)" units="Pa.s">
  <eqno value="12" />
  <A value="-3.2054" />
  <B value="-0.013548" />
  <Tmin units="K" value="221.15" />
  <Tmax units="K" value="379.45" />
  </LiquidViscosityRPS>
<COSTALDVolume name="COSTLD characteristic volume (V*)" units="m3/kmol" value="0.375222" />
<DiameterLJ name="Lennard Jones diameter" units="m" value="6.702327E-10" />
<EnergyLJ name="Lennard Jones energy" units="K" value="294.0371" />
<RacketParameter name="Rackett parameter" units="_" value="0.261" />
<FullerVolume name="Fuller et al. diffusion volume" units="_" value="129.23" />
<MatthiasCopemanC2 name="Mathias-Copeman C2" units="_" value="-0.91793" />
<Parachor name="Parachor" units="kg0.25.m3/s0.5/kmol" value="0.0479897" />
<SpecificGravity name="Specific gravity" units="_" value="0.810203" />
<Charge name="Charge" units="_" value="0" />
<CostaldAcentricFactor name="SRK acentric factor" units="_" value="0.327309" />
<WilsonVolume name="Wilson volume" units="m3/kmol" value="0.124869" />
<UniquacR name="UNIQUAC r" units="_" value="4.5952" />
<UniquacQ name="UNIQUAC q" units="_" value="4.032" />
<MatthiasCopemanC3 name="Mathias-Copeman C3" units="_" value="1.11079" />
<ChaoSeaderAcentricFactor name="Chao-Seader acentric factor" units="_" value="0.327309" />
<ChaoSeaderSolubilityParameter name="Chao-Seader solubility parameter" units="J0.5/m1.5" value="16920" />
<ChaoSeaderLiquidVolume name="Chao-Seader liquid volume" units="m3/kmol" value="0.124869" />
<UnifacVLE name="UNIFAC">
  <group id="1" value="3" />
  <group id="4" value="1" />
  <group id="19" value="1" />
  </UnifacVLE>
<UnifacLLE name="UNIFAC-LLE">
  <group id="1" value="3" />
  <group id="4" value="1" />
  <group id="19" value="1" />
  </UnifacLLE>
<Asog name="ASOG">
  <group id="1" value="4" />
  <group id="4" value="1" />
  <group id="18" value="1" />
  </Asog>
<Umr name="UMR">
  <group id="1" value="3" />
  <group id="4" value="1" />
  <group id="19" value="1" />
  </Umr>
<ModifiedUnifac name="Modified UNIFAC">
  <group id="1" value="3" />
  <group id="4" value="1" />
  <group id="18" value="1" />
  </ModifiedUnifac>
<CAS name="CAS number" value="75-97-8" />
<Smiles name="SMILES" value="CC(=O)C(C)(C)C" />
</compound>

