<compound>
<LibraryIndex name="Index" value="94" />
<CompoundID name="Name" value="3-ethylheptane" />
<StructureFormula name="Structure" value="CH3CH2CH(C2H5)CH2(CH2)2CH3" />
<Family name="Family" value="4" />
<CriticalTemperature name="Critical temperature" units="K" value="594.3" />
<CriticalPressure name="Critical pressure" units="Pa" value="2430000" />
<CriticalVolume name="Critical volume" units="m3/kmol" value="0.5213" />
<CriticalCompressibility name="Critical compressibility factor" units="_" value="0.257" />
<NormalBoilingPointTemperature name="Normal boiling point" units="K" value="416.35" />
<NormalMeltingPointTemperature name="Melting point" units="K" value="158.25" />
<TriplePointTemperature name="Triple point temperature" units="K" value="158.25" />
<TriplePointPressure name="Triple point pressure" units="Pa" value="0.0000277743" />
<MolecularWeight name="Molecular weight" units="kg/kmol" value="128.2551" />
<LiquidVolumeAtNormalBoilingPoint name="Liquid molar volume at normal boiling point" units="m3/kmol" value="0.177515" />
<AcentricityFactor name="Acentric factor" units="_" value="0.407991" />
<RadiusOfGyration name="Radius of gyration" units="m" value="4.953E-10" />
<SolubilityParameter name="Solubility parameter" units="J0.5/m1.5" value="15300" />
<DipoleMoment name="Dipole moment" units="Coulomb.m" value="0" />
<VanDerWaalsVolume name="Van der Waals volume" units="m3/kmol" value="0.09894" />
<VanDerWaalsArea name="Van der Waals area" units="m2/kmol" value="1.368E+09" />
<HeatOfFormation name="IG heat of formation" units="J/kmol" value="-2.3146E+08" />
<GibbsEnergyOfFormation name="IG Gibbs energy of formation" units="J/kmol" value="2.494E+07" />
<AbsEntropy name="IG absolute entropy" units="J/kmol/K" value="497400" />
<HeatOfFusionAtMeltingPoint name="Heat of fusion at melting point" units="J/kmol" value="1.6E+07" />
<HeatOfCombustion name="Standard net heat of combustion LHV" units="J/kmol" value="-5.6838E+09" />
<SolidDensity name="Solid density" units="kmol/m3">
  <eqno value="100" />
  <A value="8.1778" />
  <B value="-0.0064596" />
  <C value="0" />
  <D value="0" />
  <E value="0" />
  <Tmin units="K" value="63.3" />
  <Tmax units="K" value="158.25" />
  </SolidDensity>
<LiquidDensity name="Liquid density" units="kmol/m3">
  <eqno value="105" />
  <A value="0.38578" />
  <B value="0.23273" />
  <C value="594.3" />
  <D value="0.25158" />
  <Tmin units="K" value="158.25" />
  <Tmax units="K" value="567.28" />
  </LiquidDensity>
<VaporPressure name="Vapour pressure" units="Pa">
  <eqno value="101" />
  <A value="103.6653" />
  <B value="-8269.445" />
  <C value="-12.32292" />
  <D value="0.000012256" />
  <E value="2" />
  <Tmin units="K" value="158.25" />
  <Tmax units="K" value="590" />
  </VaporPressure>
<HeatOfVaporization name="Heat of vaporization" units="J/kmol">
  <eqno value="106" />
  <A value="6.3311E+07" />
  <B value="1.0505" />
  <C value="-1.9581" />
  <D value="2.2955" />
  <E value="-0.98973" />
  <Tmin units="K" value="158.25" />
  <Tmax units="K" value="590" />
  </HeatOfVaporization>
<SolidHeatCapacityCp name="Solid heat capacity" units="J/kmol/K">
  <eqno value="1" />
  <A value="249210" />
  <Tmin units="K" value="0" />
  <Tmax units="K" value="594.3" />
  </SolidHeatCapacityCp>
<LiquidHeatCapacityCp name="Liquid heat capacity" units="J/kmol/K">
  <eqno value="16" />
  <A value="29546" />
  <B value="-3.2521" />
  <C value="11.386" />
  <D value="0.0045932" />
  <E value="-0.0000035582" />
  <Tmin units="K" value="158.25" />
  <Tmax units="K" value="416.35" />
  </LiquidHeatCapacityCp>
<IdealGasHeatCapacityCp name="Ideal gas heat capacity" units="J/kmol/K">
  <eqno value="16" />
  <A value="137360" />
  <B value="-689.88" />
  <C value="13.586" />
  <D value="-0.00018791" />
  <E value="5.2355E-08" />
  <Tmin units="K" value="150" />
  <Tmax units="K" value="1500" />
  </IdealGasHeatCapacityCp>
<SecondVirialCoefficient name="Second virial coefficient" units="m3/kmol">
  <eqno value="104" />
  <A value="0.30691" />
  <B value="-394.25" />
  <C value="-77.102" />
  <D value="-21616" />
  <E value="36748" />
  <Tmin units="K" value="297.15" />
  <Tmax units="K" value="1500" />
  </SecondVirialCoefficient>
<LiquidViscosity name="Liquid viscosity" units="Pa.s">
  <eqno value="101" />
  <A value="-11.279" />
  <B value="1149.8" />
  <C value="-0.019903" />
  <D value="1.7111E-07" />
  <E value="2" />
  <Tmin units="K" value="158.25" />
  <Tmax units="K" value="475.44" />
  </LiquidViscosity>
<VaporViscosity name="Vapour viscosity" units="Pa.s">
  <eqno value="102" />
  <A value="0.0000007497" />
  <B value="0.48637" />
  <C value="340.94" />
  <D value="-2876.9" />
  <Tmin units="K" value="158.25" />
  <Tmax units="K" value="1000" />
  </VaporViscosity>
<LiquidThermalConductivity name="Liquid thermal conductivity" units="W/m/K">
  <eqno value="16" />
  <A value="-0.038271" />
  <B value="3.4169" />
  <C value="-1.6847" />
  <D value="-0.00052626" />
  <E value="-0.0000013295" />
  <Tmin units="K" value="158.25" />
  <Tmax units="K" value="416.35" />
  </LiquidThermalConductivity>
<VaporThermalConductivity name="Vapour thermal conductivity" units="W/m/K">
  <eqno value="102" />
  <A value="0.000030963" />
  <B value="1.1527" />
  <C value="-150.17" />
  <D value="156710" />
  <Tmin units="K" value="158.25" />
  <Tmax units="K" value="1000" />
  </VaporThermalConductivity>
<SurfaceTension name="Surface tension" units="N/m">
  <eqno value="16" />
  <A value="-0.011888" />
  <B value="12.561" />
  <C value="-2.9032" />
  <D value="-0.00075797" />
  <E value="-0.0000031904" />
  <Tmin units="K" value="158.25" />
  <Tmax units="K" value="590" />
  </SurfaceTension>
<RPPHeatCapacityCp name="Ideal gas heat capacity (RPP)" units="J/kmol/K">
  <eqno value="4" />
  <A value="28905" />
  <B value="723.1" />
  <C value="-0.30251" />
  <D value="0.000037455" />
  <Tmin units="K" value="150" />
  <Tmax units="K" value="1500" />
  </RPPHeatCapacityCp>
<AntoineVaporPressure name="Antoine" units="Pa">
  <eqno value="10" />
  <A value="20.883" />
  <B value="3285.8" />
  <C value="-64.914" />
  <Tmin units="K" value="362.76" />
  <Tmax units="K" value="521.83" />
  </AntoineVaporPressure>
<LiquidViscosityRPS name="Liquid viscosity (RPS)" units="Pa.s">
  <eqno value="12" />
  <A value="-2.3411" />
  <B value="-0.016316" />
  <Tmin units="K" value="158.25" />
  <Tmax units="K" value="416.35" />
  </LiquidViscosityRPS>
<COSTALDVolume name="COSTLD characteristic volume (V*)" units="m3/kmol" value="0.550226" />
<DiameterLJ name="Lennard Jones diameter" units="m" value="7.668101E-10" />
<EnergyLJ name="Lennard Jones energy" units="K" value="291.5266" />
<RacketParameter name="Rackett parameter" units="_" value="0.257" />
<FullerVolume name="Fuller et al. diffusion volume" units="_" value="189.3" />
<Parachor name="Parachor" units="kg0.25.m3/s0.5/kmol" value="0.0682157" />
<SpecificGravity name="Specific gravity" units="_" value="0.730456" />
<Charge name="Charge" units="_" value="0" />
<CostaldAcentricFactor name="SRK acentric factor" units="_" value="0.407991" />
<WilsonVolume name="Wilson volume" units="m3/kmol" value="0.177515" />
<UniquacR name="UNIQUAC r" units="_" value="6.5222" />
<UniquacQ name="UNIQUAC q" units="_" value="5.472" />
<ChaoSeaderAcentricFactor name="Chao-Seader acentric factor" units="_" value="0.407991" />
<ChaoSeaderSolubilityParameter name="Chao-Seader solubility parameter" units="J0.5/m1.5" value="15300" />
<ChaoSeaderLiquidVolume name="Chao-Seader liquid volume" units="m3/kmol" value="0.177515" />
<UnifacVLE name="UNIFAC">
  <group id="1" value="3" />
  <group id="2" value="5" />
  <group id="3" value="1" />
  </UnifacVLE>
<UnifacLLE name="UNIFAC-LLE">
  <group id="1" value="3" />
  <group id="2" value="5" />
  <group id="3" value="1" />
  </UnifacLLE>
<Asog name="ASOG">
  <group id="1" value="3" />
  <group id="2" value="5" />
  <group id="3" value="1" />
  </Asog>
<GCmethod name="PPR78">
  <group id="1" value="3" />
  <group id="2" value="5" />
  <group id="3" value="1" />
  </GCmethod>
<Umr name="UMR">
  <group id="1" value="3" />
  <group id="2" value="5" />
  <group id="3" value="1" />
  </Umr>
<ModifiedUnifac name="Modified UNIFAC">
  <group id="1" value="3" />
  <group id="2" value="5" />
  <group id="3" value="1" />
  </ModifiedUnifac>
<CAS name="CAS number" value="15869-80-4" />
<Smiles name="SMILES" value="CCC(CC)CCCC" />
</compound>

