<compound>
<LibraryIndex name="Index" value="31" />
<CompoundID name="Name" value="3-ethylhexane" />
<StructureFormula name="Structure" value="CH3CH2CH(C2H5)CH2CH2CH3" />
<Family name="Family" value="4" />
<CriticalTemperature name="Critical temperature" units="K" value="565.4" />
<CriticalPressure name="Critical pressure" units="Pa" value="2610000" />
<CriticalVolume name="Critical volume" units="m3/kmol" value="0.4605" />
<CriticalCompressibility name="Critical compressibility factor" units="_" value="0.253" />
<NormalBoilingPointTemperature name="Normal boiling point" units="K" value="391.69" />
<MolecularWeight name="Molecular weight" units="kg/kmol" value="114.2285" />
<LiquidVolumeAtNormalBoilingPoint name="Liquid molar volume at normal boiling point" units="m3/kmol" value="0.16101" />
<AcentricityFactor name="Acentric factor" units="_" value="0.362" />
<RadiusOfGyration name="Radius of gyration" units="m" value="4.571E-10" />
<SolubilityParameter name="Solubility parameter" units="J0.5/m1.5" value="15210" />
<DipoleMoment name="Dipole moment" units="Coulomb.m" value="0" />
<VanDerWaalsVolume name="Van der Waals volume" units="m3/kmol" value="0.08871" />
<VanDerWaalsArea name="Van der Waals area" units="m2/kmol" value="1.233E+09" />
<HeatOfFormation name="IG heat of formation" units="J/kmol" value="-2.10874E+08" />
<GibbsEnergyOfFormation name="IG Gibbs energy of formation" units="J/kmol" value="1.68615E+07" />
<AbsEntropy name="IG absolute entropy" units="J/kmol/K" value="457860" />
<HeatOfFusionAtMeltingPoint name="Heat of fusion at melting point" units="J/kmol" value="0" />
<MatthiasCopemanC1 name="Mathias-Copeman C1" units="_" value="1.02158" />
<HeatOfCombustion name="Standard net heat of combustion LHV" units="J/kmol" value="-5.07398E+09" />
<SolidDensity name="Solid density" units="kmol/m3">
  <eqno value="2" />
  <A value="7.46" />
  <B value="-2.5002E-16" />
  <C value="0" />
  <D value="0" />
  <E value="0" />
  <Tmin units="K" value="0" />
  <Tmax units="K" value="9.5" />
  </SolidDensity>
<LiquidDensity name="Liquid density" units="kmol/m3">
  <eqno value="105" />
  <A value="0.46206" />
  <B value="0.24436" />
  <C value="565.51" />
  <D value="0.22747" />
  <Tmin units="K" value="272.04" />
  <Tmax units="K" value="565.5" />
  </LiquidDensity>
<VaporPressure name="Vapour pressure" units="Pa">
  <eqno value="101" />
  <A value="97.09596" />
  <B value="-7733.566" />
  <C value="-11.22583" />
  <D value="7.810756E-06" />
  <E value="2" />
  <Tmin units="K" value="272.04" />
  <Tmax units="K" value="565.5" />
  </VaporPressure>
<HeatOfVaporization name="Heat of vaporization" units="J/kmol">
  <eqno value="106" />
  <A value="5.4799E+07" />
  <B value="0.26737" />
  <C value="0.81877" />
  <D value="-1.2904" />
  <E value="0.59915" />
  <Tmin units="K" value="272.04" />
  <Tmax units="K" value="550.05" />
  </HeatOfVaporization>
<SolidHeatCapacityCp name="Solid heat capacity" units="J/kmol/K">
  <eqno value="1" />
  <A value="223200" />
  <Tmin units="K" value="0" />
  <Tmax units="K" value="565.4" />
  </SolidHeatCapacityCp>
<LiquidHeatCapacityCp name="Liquid heat capacity" units="J/kmol/K">
  <eqno value="16" />
  <A value="80628" />
  <B value="-64.909" />
  <C value="11.186" />
  <D value="0.0048319" />
  <E value="-0.0000040172" />
  <Tmin units="K" value="166.11" />
  <Tmax units="K" value="391.69" />
  </LiquidHeatCapacityCp>
<IdealGasHeatCapacityCp name="Ideal gas heat capacity" units="J/kmol/K">
  <eqno value="16" />
  <A value="115160" />
  <B value="-618.28" />
  <C value="13.279" />
  <D value="0.0000464" />
  <E value="-2.6202E-08" />
  <Tmin units="K" value="200" />
  <Tmax units="K" value="1500" />
  </IdealGasHeatCapacityCp>
<SecondVirialCoefficient name="Second virial coefficient" units="m3/kmol">
  <eqno value="104" />
  <A value="0.27373" />
  <B value="-345.24" />
  <C value="-56.178" />
  <D value="-8141.6" />
  <E value="10145" />
  <Tmin units="K" value="282.7" />
  <Tmax units="K" value="1806.7" />
  </SecondVirialCoefficient>
<LiquidViscosity name="Liquid viscosity" units="Pa.s">
  <eqno value="101" />
  <A value="-7.8742" />
  <B value="897.68" />
  <C value="-0.5066" />
  <D value="2.0784E-08" />
  <E value="2" />
  <Tmin units="K" value="272.04" />
  <Tmax units="K" value="400" />
  </LiquidViscosity>
<VaporViscosity name="Vapour viscosity" units="Pa.s">
  <eqno value="102" />
  <A value="3.7627E-07" />
  <B value="0.57415" />
  <C value="196.9" />
  <D value="-172.94" />
  <Tmin units="K" value="391.69" />
  <Tmax units="K" value="1000" />
  </VaporViscosity>
<LiquidThermalConductivity name="Liquid thermal conductivity" units="W/m/K">
  <eqno value="16" />
  <A value="-0.001637" />
  <B value="-138.28" />
  <C value="-0.62782" />
  <D value="-0.0040963" />
  <E value="8.9774E-07" />
  <Tmin units="K" value="272.04" />
  <Tmax units="K" value="391.69" />
  </LiquidThermalConductivity>
<VaporThermalConductivity name="Vapour thermal conductivity" units="W/m/K">
  <eqno value="102" />
  <A value="0.000056588" />
  <B value="1.0789" />
  <C value="-123.05" />
  <D value="173090" />
  <Tmin units="K" value="152" />
  <Tmax units="K" value="1000" />
  </VaporThermalConductivity>
<SurfaceTension name="Surface tension" units="N/m">
  <eqno value="16" />
  <A value="-0.044466" />
  <B value="-81.024" />
  <C value="-1.6153" />
  <D value="-0.0032549" />
  <E value="0.0000014934" />
  <Tmin units="K" value="272.04" />
  <Tmax units="K" value="550.05" />
  </SurfaceTension>
<RPPHeatCapacityCp name="Ideal gas heat capacity (RPP)" units="J/kmol/K">
  <eqno value="100" />
  <A value="59681" />
  <B value="280.36" />
  <C value="0.8618" />
  <D value="-0.0012731" />
  <E value="5.0619E-07" />
  <Tmin units="K" value="200" />
  <Tmax units="K" value="1000" />
  </RPPHeatCapacityCp>
<AntoineVaporPressure name="Antoine" units="Pa">
  <eqno value="10" />
  <A value="21.025" />
  <B value="3214.3" />
  <C value="-53.307" />
  <Tmin units="K" value="272.04" />
  <Tmax units="K" value="565.5" />
  </AntoineVaporPressure>
<LiquidViscosityRPS name="Liquid viscosity (RPS)" units="Pa.s">
  <eqno value="12" />
  <A value="-4.7324" />
  <B value="-0.010064" />
  <Tmin units="K" value="272.04" />
  <Tmax units="K" value="391.69" />
  </LiquidViscosityRPS>
<COSTALDVolume name="COSTLD characteristic volume (V*)" units="m3/kmol" value="0.486909" />
<DiameterLJ name="Lennard Jones diameter" units="m" value="7.497393E-10" />
<EnergyLJ name="Lennard Jones energy" units="K" value="262.1216" />
<RacketParameter name="Rackett parameter" units="_" value="0.253" />
<FullerVolume name="Fuller et al. diffusion volume" units="_" value="168.78" />
<MatthiasCopemanC2 name="Mathias-Copeman C2" units="_" value="0" />
<Parachor name="Parachor" units="kg0.25.m3/s0.5/kmol" value="0.0603593" />
<SpecificGravity name="Specific gravity" units="_" value="0.716248" />
<Charge name="Charge" units="_" value="0" />
<CostaldAcentricFactor name="SRK acentric factor" units="_" value="0.362" />
<WilsonVolume name="Wilson volume" units="m3/kmol" value="0.16101" />
<UniquacR name="UNIQUAC r" units="_" value="5.8478" />
<UniquacQ name="UNIQUAC q" units="_" value="4.932" />
<MatthiasCopemanC3 name="Mathias-Copeman C3" units="_" value="0" />
<ChaoSeaderAcentricFactor name="Chao-Seader acentric factor" units="_" value="0.362" />
<ChaoSeaderSolubilityParameter name="Chao-Seader solubility parameter" units="J0.5/m1.5" value="15210" />
<ChaoSeaderLiquidVolume name="Chao-Seader liquid volume" units="m3/kmol" value="0.16101" />
<UnifacVLE name="UNIFAC">
  <group id="1" value="3" />
  <group id="2" value="4" />
  <group id="3" value="1" />
  </UnifacVLE>
<UnifacLLE name="UNIFAC-LLE">
  <group id="1" value="3" />
  <group id="2" value="4" />
  <group id="3" value="1" />
  </UnifacLLE>
<Asog name="ASOG">
  <group id="1" value="3" />
  <group id="2" value="4" />
  <group id="3" value="1" />
  </Asog>
<GCmethod name="PPR78">
  <group id="1" value="3" />
  <group id="2" value="4" />
  <group id="3" value="1" />
  </GCmethod>
<Umr name="UMR">
  <group id="1" value="3" />
  <group id="2" value="4" />
  <group id="3" value="1" />
  </Umr>
<ModifiedUnifac name="Modified UNIFAC">
  <group id="1" value="3" />
  <group id="2" value="4" />
  <group id="3" value="1" />
  </ModifiedUnifac>
<CAS name="CAS number" value="619-99-8" />
<Smiles name="SMILES" value="CCC(CC)CCC" />
</compound>

