<compound>
<LibraryIndex name="Index" value="1059" />
<CompoundID name="Name" value="3-hexanone" />
<StructureFormula name="Structure" value="CH3CH2CH2COCH2CH3" />
<Family name="Family" value="26" />
<CriticalTemperature name="Critical temperature" units="K" value="582.8" />
<CriticalPressure name="Critical pressure" units="Pa" value="3320000" />
<CriticalVolume name="Critical volume" units="m3/kmol" value="0.378" />
<CriticalCompressibility name="Critical compressibility factor" units="_" value="0.256" />
<NormalBoilingPointTemperature name="Normal boiling point" units="K" value="396.65" />
<NormalMeltingPointTemperature name="Melting point" units="K" value="215" />
<TriplePointTemperature name="Triple point temperature" units="K" value="217.5" />
<TriplePointPressure name="Triple point pressure" units="Pa" value="2.22016" />
<MolecularWeight name="Molecular weight" units="kg/kmol" value="100.1589" />
<LiquidVolumeAtNormalBoilingPoint name="Liquid molar volume at normal boiling point" units="m3/kmol" value="0.12343" />
<AcentricityFactor name="Acentric factor" units="_" value="0.38" />
<RadiusOfGyration name="Radius of gyration" units="m" value="4.009E-10" />
<SolubilityParameter name="Solubility parameter" units="J0.5/m1.5" value="17930" />
<DipoleMoment name="Dipole moment" units="Coulomb.m" value="9.57E-30" />
<VanDerWaalsVolume name="Van der Waals volume" units="m3/kmol" value="0.06973" />
<VanDerWaalsArea name="Van der Waals area" units="m2/kmol" value="9.89E+08" />
<HeatOfFormation name="IG heat of formation" units="J/kmol" value="-2.777E+08" />
<GibbsEnergyOfFormation name="IG Gibbs energy of formation" units="J/kmol" value="-1.253E+08" />
<AbsEntropy name="IG absolute entropy" units="J/kmol/K" value="409200" />
<HeatOfFusionAtMeltingPoint name="Heat of fusion at melting point" units="J/kmol" value="1.11E+07" />
<MatthiasCopemanC1 name="Mathias-Copeman C1" units="_" value="1.04843" />
<HeatOfCombustion name="Standard net heat of combustion LHV" units="J/kmol" value="-3.492E+09" />
<SolidDensity name="Solid density" units="kmol/m3">
  <eqno value="2" />
  <A value="11.108" />
  <B value="-0.0055955" />
  <C value="0" />
  <D value="0" />
  <E value="0" />
  <Tmin units="K" value="87" />
  <Tmax units="K" value="217.5" />
  </SolidDensity>
<LiquidDensity name="Liquid density" units="kmol/m3">
  <eqno value="105" />
  <A value="0.60844" />
  <B value="0.24303" />
  <C value="582.83" />
  <D value="0.26177" />
  <Tmin units="K" value="217.5" />
  <Tmax units="K" value="582.82" />
  </LiquidDensity>
<VaporPressure name="Vapour pressure" units="Pa">
  <eqno value="101" />
  <A value="109.4591" />
  <B value="-8520.55" />
  <C value="-13.01531" />
  <D value="9.019631E-06" />
  <E value="2" />
  <Tmin units="K" value="217.5" />
  <Tmax units="K" value="582.82" />
  </VaporPressure>
<HeatOfVaporization name="Heat of vaporization" units="J/kmol">
  <eqno value="106" />
  <A value="5.134266E+07" />
  <B value="-0.294625" />
  <C value="1.94188" />
  <D value="-1.96318" />
  <E value="0.653572" />
  <Tmin units="K" value="217.5" />
  <Tmax units="K" value="563.59" />
  </HeatOfVaporization>
<SolidHeatCapacityCp name="Solid heat capacity" units="J/kmol/K">
  <eqno value="100" />
  <A value="-4123.3" />
  <B value="428.48" />
  <C value="26.855" />
  <D value="-0.35338" />
  <E value="0.0013463" />
  <Tmin units="K" value="12.52" />
  <Tmax units="K" value="140.13" />
  </SolidHeatCapacityCp>
<LiquidHeatCapacityCp name="Liquid heat capacity" units="J/kmol/K">
  <eqno value="16" />
  <A value="185400" />
  <B value="578.77" />
  <C value="3.0261" />
  <D value="0.02276" />
  <E value="-0.000015777" />
  <Tmin units="K" value="217.5" />
  <Tmax units="K" value="460" />
  </LiquidHeatCapacityCp>
<IdealGasHeatCapacityCp name="Ideal gas heat capacity" units="J/kmol/K">
  <eqno value="16" />
  <A value="108160" />
  <B value="-675.23" />
  <C value="12.973" />
  <D value="-0.000036372" />
  <E value="-1.5789E-08" />
  <Tmin units="K" value="150" />
  <Tmax units="K" value="1500" />
  </IdealGasHeatCapacityCp>
<SecondVirialCoefficient name="Second virial coefficient" units="m3/kmol">
  <eqno value="104" />
  <A value="0.21084" />
  <B value="-230.63" />
  <C value="-67.335" />
  <D value="-10006" />
  <E value="-4827.2" />
  <Tmin units="K" value="291.41" />
  <Tmax units="K" value="1863.41" />
  </SecondVirialCoefficient>
<LiquidViscosity name="Liquid viscosity" units="Pa.s">
  <eqno value="101" />
  <A value="-3.119" />
  <B value="957.18" />
  <C value="-1.3764" />
  <D value="0.0000033013" />
  <E value="2" />
  <Tmin units="K" value="217.5" />
  <Tmax units="K" value="505" />
  </LiquidViscosity>
<VaporViscosity name="Vapour viscosity" units="Pa.s">
  <eqno value="102" />
  <A value="1.7969E-07" />
  <B value="0.70065" />
  <C value="200.48" />
  <D value="-7668.6" />
  <Tmin units="K" value="217.5" />
  <Tmax units="K" value="1000" />
  </VaporViscosity>
<LiquidThermalConductivity name="Liquid thermal conductivity" units="W/m/K">
  <eqno value="16" />
  <A value="0.0083801" />
  <B value="80.808" />
  <C value="-2.2377" />
  <D value="0.00083175" />
  <E value="-0.0000033028" />
  <Tmin units="K" value="174.85" />
  <Tmax units="K" value="533.15" />
  </LiquidThermalConductivity>
<VaporThermalConductivity name="Vapour thermal conductivity" units="W/m/K">
  <eqno value="102" />
  <A value="-0.24291" />
  <B value="0.11759" />
  <C value="-2306.6" />
  <D value="-3681900" />
  <Tmin units="K" value="217.5" />
  <Tmax units="K" value="1000" />
  </VaporThermalConductivity>
<SurfaceTension name="Surface tension" units="N/m">
  <eqno value="16" />
  <A value="-0.034741" />
  <B value="-20.897" />
  <C value="-2.185" />
  <D value="-0.0017942" />
  <E value="-3.1071E-07" />
  <Tmin units="K" value="217.5" />
  <Tmax units="K" value="563.59" />
  </SurfaceTension>
<RPPHeatCapacityCp name="Ideal gas heat capacity (RPP)" units="J/kmol/K">
  <eqno value="100" />
  <A value="77799" />
  <B value="112.29" />
  <C value="0.72627" />
  <D value="-0.00099092" />
  <E value="3.9161E-07" />
  <Tmin units="K" value="200" />
  <Tmax units="K" value="1000" />
  </RPPHeatCapacityCp>
<RelativeStaticPermittivity name="Relative static permittivity" units="_">
  <eqno value="120" />
  <A value="-15.27517" />
  <B value="-7300" />
  <C value="-43.8" />
  <Tmin units="K" value="269.15" />
  <Tmax units="K" value="439.15" />
  </RelativeStaticPermittivity>
<AntoineVaporPressure name="Antoine" units="Pa">
  <eqno value="10" />
  <A value="21.18" />
  <B value="3255.7" />
  <C value="-59.439" />
  <Tmin units="K" value="350" />
  <Tmax units="K" value="520" />
  </AntoineVaporPressure>
<LiquidViscosityRPS name="Liquid viscosity (RPS)" units="Pa.s">
  <eqno value="12" />
  <A value="-3.2945" />
  <B value="-0.013514" />
  <Tmin units="K" value="217.5" />
  <Tmax units="K" value="396.65" />
  </LiquidViscosityRPS>
<COSTALDVolume name="COSTLD characteristic volume (V*)" units="m3/kmol" value="0.375336" />
<DiameterLJ name="Lennard Jones diameter" units="m" value="6.921299E-10" />
<EnergyLJ name="Lennard Jones energy" units="K" value="281.901" />
<RacketParameter name="Rackett parameter" units="_" value="0.256" />
<FullerVolume name="Fuller et al. diffusion volume" units="_" value="129.23" />
<MatthiasCopemanC2 name="Mathias-Copeman C2" units="_" value="0" />
<Parachor name="Parachor" units="kg0.25.m3/s0.5/kmol" value="0.0492727" />
<SpecificGravity name="Specific gravity" units="_" value="0.819086" />
<Charge name="Charge" units="_" value="0" />
<CostaldAcentricFactor name="SRK acentric factor" units="_" value="0.38" />
<WilsonVolume name="Wilson volume" units="m3/kmol" value="0.12343" />
<UniquacR name="UNIQUAC r" units="_" value="4.5967" />
<UniquacQ name="UNIQUAC q" units="_" value="3.956" />
<MatthiasCopemanC3 name="Mathias-Copeman C3" units="_" value="0" />
<ChaoSeaderAcentricFactor name="Chao-Seader acentric factor" units="_" value="0.38" />
<ChaoSeaderSolubilityParameter name="Chao-Seader solubility parameter" units="J0.5/m1.5" value="17930" />
<ChaoSeaderLiquidVolume name="Chao-Seader liquid volume" units="m3/kmol" value="0.12343" />
<UnifacVLE name="UNIFAC">
  <group id="1" value="2" />
  <group id="2" value="2" />
  <group id="20" value="1" />
  </UnifacVLE>
<UnifacLLE name="UNIFAC-LLE">
  <group id="1" value="2" />
  <group id="2" value="2" />
  <group id="20" value="1" />
  </UnifacLLE>
<Asog name="ASOG">
  <group id="1" value="2" />
  <group id="2" value="3" />
  <group id="18" value="1" />
  </Asog>
<Umr name="UMR">
  <group id="1" value="2" />
  <group id="2" value="2" />
  <group id="20" value="1" />
  </Umr>
<ModifiedUnifac name="Modified UNIFAC">
  <group id="1" value="2" />
  <group id="2" value="2" />
  <group id="19" value="1" />
  </ModifiedUnifac>
<CAS name="CAS number" value="589-38-8" />
<Smiles name="SMILES" value="CCC(=O)CCC" />
</compound>

