<compound>
<LibraryIndex name="Index" value="29" />
<CompoundID name="Name" value="3-methylheptane" />
<StructureFormula name="Structure" value="CH3CH2CH(CH3)(CH2)3CH3" />
<Family name="Family" value="2" />
<CriticalTemperature name="Critical temperature" units="K" value="563.6" />
<CriticalPressure name="Critical pressure" units="Pa" value="2550000" />
<CriticalVolume name="Critical volume" units="m3/kmol" value="0.4711" />
<CriticalCompressibility name="Critical compressibility factor" units="_" value="0.253" />
<NormalBoilingPointTemperature name="Normal boiling point" units="K" value="392.08" />
<NormalMeltingPointTemperature name="Melting point" units="K" value="152.65" />
<TriplePointTemperature name="Triple point temperature" units="K" value="152.6" />
<TriplePointPressure name="Triple point pressure" units="Pa" value="0.0000523002" />
<MolecularWeight name="Molecular weight" units="kg/kmol" value="114.2285" />
<LiquidVolumeAtNormalBoilingPoint name="Liquid molar volume at normal boiling point" units="m3/kmol" value="0.16278" />
<AcentricityFactor name="Acentric factor" units="_" value="0.371" />
<RadiusOfGyration name="Radius of gyration" units="m" value="4.49E-10" />
<SolubilityParameter name="Solubility parameter" units="J0.5/m1.5" value="15180" />
<DipoleMoment name="Dipole moment" units="Coulomb.m" value="0" />
<VanDerWaalsVolume name="Van der Waals volume" units="m3/kmol" value="0.08871" />
<VanDerWaalsArea name="Van der Waals area" units="m2/kmol" value="1.233E+09" />
<HeatOfFormation name="IG heat of formation" units="J/kmol" value="-2.1251E+08" />
<GibbsEnergyOfFormation name="IG Gibbs energy of formation" units="J/kmol" value="1.275E+07" />
<AbsEntropy name="IG absolute entropy" units="J/kmol/K" value="465510" />
<HeatOfFusionAtMeltingPoint name="Heat of fusion at melting point" units="J/kmol" value="1.163E+07" />
<MatthiasCopemanC1 name="Mathias-Copeman C1" units="_" value="1.0872" />
<HeatOfCombustion name="Standard net heat of combustion LHV" units="J/kmol" value="-5.0721E+09" />
<SolidDensity name="Solid density" units="kmol/m3">
  <eqno value="2" />
  <A value="8.8888" />
  <B value="-0.0064444" />
  <C value="0" />
  <D value="0" />
  <E value="0" />
  <Tmin units="K" value="61.04" />
  <Tmax units="K" value="152.6" />
  </SolidDensity>
<LiquidDensity name="Liquid density" units="kmol/m3">
  <eqno value="105" />
  <A value="0.48768" />
  <B value="0.25064" />
  <C value="563.66" />
  <D value="0.24544" />
  <Tmin units="K" value="152.6" />
  <Tmax units="K" value="563.65" />
  </LiquidDensity>
<VaporPressure name="Vapour pressure" units="Pa">
  <eqno value="101" />
  <A value="94.76732" />
  <B value="-7652.539" />
  <C value="-10.86325" />
  <D value="7.450521E-06" />
  <E value="2" />
  <Tmin units="K" value="152.6" />
  <Tmax units="K" value="563.67" />
  </VaporPressure>
<HeatOfVaporization name="Heat of vaporization" units="J/kmol">
  <eqno value="106" />
  <A value="6.899021E+07" />
  <B value="1.39863" />
  <C value="-1.771662" />
  <D value="1.093723" />
  <E value="-0.270846" />
  <Tmin units="K" value="152.6" />
  <Tmax units="K" value="548" />
  </HeatOfVaporization>
<SolidHeatCapacityCp name="Solid heat capacity" units="J/kmol/K">
  <eqno value="100" />
  <A value="-22283" />
  <B value="1860.6" />
  <C value="-6.4838" />
  <D value="-0.0071294" />
  <E value="0.00010229" />
  <Tmin units="K" value="30" />
  <Tmax units="K" value="152.6" />
  </SolidHeatCapacityCp>
<LiquidHeatCapacityCp name="Liquid heat capacity" units="J/kmol/K">
  <eqno value="16" />
  <A value="137930" />
  <B value="50.329" />
  <C value="9.9028" />
  <D value="0.0059467" />
  <E value="-0.0000024618" />
  <Tmin units="K" value="107.25" />
  <Tmax units="K" value="500" />
  </LiquidHeatCapacityCp>
<IdealGasHeatCapacityCp name="Ideal gas heat capacity" units="J/kmol/K">
  <eqno value="16" />
  <A value="103080" />
  <B value="-583.42" />
  <C value="13.271" />
  <D value="0.000052348" />
  <E value="-2.126E-08" />
  <Tmin units="K" value="150" />
  <Tmax units="K" value="1500" />
  </IdealGasHeatCapacityCp>
<SecondVirialCoefficient name="Second virial coefficient" units="m3/kmol">
  <eqno value="104" />
  <A value="0.32697" />
  <B value="-423.7" />
  <C value="-35.42" />
  <D value="-43617" />
  <E value="102800" />
  <Tmin units="K" value="281.8" />
  <Tmax units="K" value="1799.84" />
  </SecondVirialCoefficient>
<LiquidViscosity name="Liquid viscosity" units="Pa.s">
  <eqno value="101" />
  <A value="-7.3817" />
  <B value="976.23" />
  <C value="-0.66335" />
  <D value="0.0000021183" />
  <E value="2" />
  <Tmin units="K" value="152.6" />
  <Tmax units="K" value="450.88" />
  </LiquidViscosity>
<VaporViscosity name="Vapour viscosity" units="Pa.s">
  <eqno value="102" />
  <A value="0.0000069865" />
  <B value="0.21161" />
  <C value="854.03" />
  <D value="-2592.5" />
  <Tmin units="K" value="152.6" />
  <Tmax units="K" value="1000" />
  </VaporViscosity>
<LiquidThermalConductivity name="Liquid thermal conductivity" units="W/m/K">
  <eqno value="16" />
  <A value="-0.043161" />
  <B value="22.706" />
  <C value="-1.6829" />
  <D value="-0.000063735" />
  <E value="-0.0000020484" />
  <Tmin units="K" value="152.6" />
  <Tmax units="K" value="503.15" />
  </LiquidThermalConductivity>
<VaporThermalConductivity name="Vapour thermal conductivity" units="W/m/K">
  <eqno value="102" />
  <A value="0.000042535" />
  <B value="1.1138" />
  <C value="-151.71" />
  <D value="168420" />
  <Tmin units="K" value="152.6" />
  <Tmax units="K" value="1000" />
  </VaporThermalConductivity>
<SurfaceTension name="Surface tension" units="N/m">
  <eqno value="16" />
  <A value="-0.010132" />
  <B value="18.511" />
  <C value="-3.0971" />
  <D value="-0.000087581" />
  <E value="-0.0000046928" />
  <Tmin units="K" value="152.6" />
  <Tmax units="K" value="541.97" />
  </SurfaceTension>
<RPPHeatCapacityCp name="Ideal gas heat capacity (RPP)" units="J/kmol/K">
  <eqno value="4" />
  <A value="950.75" />
  <B value="729.2" />
  <C value="-0.35201" />
  <D value="0.000060241" />
  <Tmin units="K" value="150" />
  <Tmax units="K" value="1500" />
  </RPPHeatCapacityCp>
<AntoineVaporPressure name="Antoine" units="Pa">
  <eqno value="10" />
  <A value="20.965" />
  <B value="3188.8" />
  <C value="-54.285" />
  <Tmin units="K" value="342.54" />
  <Tmax units="K" value="506" />
  </AntoineVaporPressure>
<LiquidViscosityRPS name="Liquid viscosity (RPS)" units="Pa.s">
  <eqno value="12" />
  <A value="-2.4083" />
  <B value="-0.017071" />
  <Tmin units="K" value="152.6" />
  <Tmax units="K" value="392.08" />
  </LiquidViscosityRPS>
<COSTALDVolume name="COSTLD characteristic volume (V*)" units="m3/kmol" value="0.486909" />
<DiameterLJ name="Lennard Jones diameter" units="m" value="7.554483E-10" />
<EnergyLJ name="Lennard Jones energy" units="K" value="261.2871" />
<RacketParameter name="Rackett parameter" units="_" value="0.253" />
<FullerVolume name="Fuller et al. diffusion volume" units="_" value="168.78" />
<MatthiasCopemanC2 name="Mathias-Copeman C2" units="_" value="-0.46447" />
<Parachor name="Parachor" units="kg0.25.m3/s0.5/kmol" value="0.06101" />
<SpecificGravity name="Specific gravity" units="_" value="0.709859" />
<Charge name="Charge" units="_" value="0" />
<CostaldAcentricFactor name="SRK acentric factor" units="_" value="0.371" />
<WilsonVolume name="Wilson volume" units="m3/kmol" value="0.16278" />
<UniquacR name="UNIQUAC r" units="_" value="5.8478" />
<UniquacQ name="UNIQUAC q" units="_" value="4.932" />
<ApiSrkS2 name="API-SRK s2" units="_" value="-0.004039" />
<MatthiasCopemanC3 name="Mathias-Copeman C3" units="_" value="0.98948" />
<ChaoSeaderAcentricFactor name="Chao-Seader acentric factor" units="_" value="0.371" />
<ChaoSeaderSolubilityParameter name="Chao-Seader solubility parameter" units="J0.5/m1.5" value="15180" />
<ChaoSeaderLiquidVolume name="Chao-Seader liquid volume" units="m3/kmol" value="0.16278" />
<UnifacVLE name="UNIFAC">
  <group id="1" value="3" />
  <group id="2" value="4" />
  <group id="3" value="1" />
  </UnifacVLE>
<UnifacLLE name="UNIFAC-LLE">
  <group id="1" value="3" />
  <group id="2" value="4" />
  <group id="3" value="1" />
  </UnifacLLE>
<Asog name="ASOG">
  <group id="1" value="3" />
  <group id="2" value="4" />
  <group id="3" value="1" />
  </Asog>
<GCmethod name="PPR78">
  <group id="1" value="3" />
  <group id="2" value="4" />
  <group id="3" value="1" />
  </GCmethod>
<Umr name="UMR">
  <group id="1" value="3" />
  <group id="2" value="4" />
  <group id="3" value="1" />
  </Umr>
<ModifiedUnifac name="Modified UNIFAC">
  <group id="1" value="3" />
  <group id="2" value="4" />
  <group id="3" value="1" />
  </ModifiedUnifac>
<CAS name="CAS number" value="589-81-1" />
<Smiles name="SMILES" value="CCC(C)CCCC" />
</compound>

