<compound>
<LibraryIndex name="Index" value="39" />
<CompoundID name="Name" value="3-methyl-3-ethylpentane" />
<StructureFormula name="Structure" value="CH3CH2C(CH3)(CH2CH3)CH2CH3" />
<Family name="Family" value="4" />
<CriticalTemperature name="Critical temperature" units="K" value="576.5" />
<CriticalPressure name="Critical pressure" units="Pa" value="2810000" />
<CriticalVolume name="Critical volume" units="m3/kmol" value="0.4551" />
<CriticalCompressibility name="Critical compressibility factor" units="_" value="0.267" />
<NormalBoilingPointTemperature name="Normal boiling point" units="K" value="391.42" />
<NormalMeltingPointTemperature name="Melting point" units="K" value="182.28" />
<TriplePointTemperature name="Triple point temperature" units="K" value="182.28" />
<TriplePointPressure name="Triple point pressure" units="Pa" value="0.0625263" />
<MolecularWeight name="Molecular weight" units="kg/kmol" value="114.2285" />
<LiquidVolumeAtNormalBoilingPoint name="Liquid molar volume at normal boiling point" units="m3/kmol" value="0.15788" />
<AcentricityFactor name="Acentric factor" units="_" value="0.305" />
<RadiusOfGyration name="Radius of gyration" units="m" value="3.928E-10" />
<SolubilityParameter name="Solubility parameter" units="J0.5/m1.5" value="15060" />
<DipoleMoment name="Dipole moment" units="Coulomb.m" value="0" />
<VanDerWaalsVolume name="Van der Waals volume" units="m3/kmol" value="0.0886999" />
<VanDerWaalsArea name="Van der Waals area" units="m2/kmol" value="1.253E+09" />
<HeatOfFormation name="IG heat of formation" units="J/kmol" value="-2.1485E+08" />
<GibbsEnergyOfFormation name="IG Gibbs energy of formation" units="J/kmol" value="2.288E+07" />
<AbsEntropy name="IG absolute entropy" units="J/kmol/K" value="432960" />
<HeatOfFusionAtMeltingPoint name="Heat of fusion at melting point" units="J/kmol" value="1.08E+07" />
<MatthiasCopemanC1 name="Mathias-Copeman C1" units="_" value="0.93763" />
<HeatOfCombustion name="Standard net heat of combustion LHV" units="J/kmol" value="-5.0716E+09" />
<SolidDensity name="Solid density" units="kmol/m3">
  <eqno value="2" />
  <A value="8.9635" />
  <B value="-0.0054551" />
  <C value="0" />
  <D value="0" />
  <E value="0" />
  <Tmin units="K" value="72.91" />
  <Tmax units="K" value="182.28" />
  </SolidDensity>
<LiquidDensity name="Liquid density" units="kmol/m3">
  <eqno value="105" />
  <A value="0.59884" />
  <B value="0.27253" />
  <C value="576.5" />
  <D value="0.28169" />
  <Tmin units="K" value="182.28" />
  <Tmax units="K" value="576.5" />
  </LiquidDensity>
<VaporPressure name="Vapour pressure" units="Pa">
  <eqno value="101" />
  <A value="85.77668" />
  <B value="-7097.92" />
  <C value="-9.572218" />
  <D value="6.70781E-06" />
  <E value="2" />
  <Tmin units="K" value="182.28" />
  <Tmax units="K" value="576.5" />
  </VaporPressure>
<HeatOfVaporization name="Heat of vaporization" units="J/kmol">
  <eqno value="106" />
  <A value="6.3775E+07" />
  <B value="1.5194" />
  <C value="-2.4569" />
  <D value="2.0687" />
  <E value="-0.69375" />
  <Tmin units="K" value="182.28" />
  <Tmax units="K" value="576.5" />
  </HeatOfVaporization>
<SolidHeatCapacityCp name="Solid heat capacity" units="J/kmol/K">
  <eqno value="1" />
  <A value="223200" />
  <Tmin units="K" value="0" />
  <Tmax units="K" value="576.5" />
  </SolidHeatCapacityCp>
<LiquidHeatCapacityCp name="Liquid heat capacity" units="J/kmol/K">
  <eqno value="16" />
  <A value="77769" />
  <B value="172.95" />
  <C value="9.182" />
  <D value="0.01021" />
  <E value="-0.0000086615" />
  <Tmin units="K" value="201.78" />
  <Tmax units="K" value="381.78" />
  </LiquidHeatCapacityCp>
<IdealGasHeatCapacityCp name="Ideal gas heat capacity" units="J/kmol/K">
  <eqno value="16" />
  <A value="89715" />
  <B value="-509.11" />
  <C value="13.135" />
  <D value="0.00024858" />
  <E value="-7.767E-08" />
  <Tmin units="K" value="150" />
  <Tmax units="K" value="1500" />
  </IdealGasHeatCapacityCp>
<SecondVirialCoefficient name="Second virial coefficient" units="m3/kmol">
  <eqno value="104" />
  <A value="0.28104" />
  <B value="-352.27" />
  <C value="-50.671" />
  <D value="-6199.9" />
  <E value="-111.85" />
  <Tmin units="K" value="249" />
  <Tmax units="K" value="1500" />
  </SecondVirialCoefficient>
<LiquidViscosity name="Liquid viscosity" units="Pa.s">
  <eqno value="101" />
  <A value="-18.59" />
  <B value="1270.3" />
  <C value="1.2467" />
  <D value="-0.0000036226" />
  <E value="2" />
  <Tmin units="K" value="182.28" />
  <Tmax units="K" value="400" />
  </LiquidViscosity>
<VaporViscosity name="Vapour viscosity" units="Pa.s">
  <eqno value="102" />
  <A value="7.5822E-07" />
  <B value="0.50218" />
  <C value="361.22" />
  <D value="-3635.6" />
  <Tmin units="K" value="182.28" />
  <Tmax units="K" value="1000" />
  </VaporViscosity>
<LiquidThermalConductivity name="Liquid thermal conductivity" units="W/m/K">
  <eqno value="16" />
  <A value="-0.037427" />
  <B value="7.7785" />
  <C value="-1.7161" />
  <D value="-0.00028317" />
  <E value="-0.0000017728" />
  <Tmin units="K" value="182.28" />
  <Tmax units="K" value="391.42" />
  </LiquidThermalConductivity>
<VaporThermalConductivity name="Vapour thermal conductivity" units="W/m/K">
  <eqno value="102" />
  <A value="0.000021773" />
  <B value="1.2197" />
  <C value="-136.64" />
  <D value="138470" />
  <Tmin units="K" value="182.28" />
  <Tmax units="K" value="1000" />
  </VaporThermalConductivity>
<SurfaceTension name="Surface tension" units="N/m">
  <eqno value="16" />
  <A value="-0.010536" />
  <B value="39.464" />
  <C value="-3.2983" />
  <D value="0.00058327" />
  <E value="-0.0000050348" />
  <Tmin units="K" value="182.28" />
  <Tmax units="K" value="576.5" />
  </SurfaceTension>
<RPPHeatCapacityCp name="Ideal gas heat capacity (RPP)" units="J/kmol/K">
  <eqno value="100" />
  <A value="-11225" />
  <B value="736.53" />
  <C value="-0.16305" />
  <D value="-0.00026099" />
  <E value="1.4875E-07" />
  <Tmin units="K" value="200" />
  <Tmax units="K" value="1000" />
  </RPPHeatCapacityCp>
<RelativeStaticPermittivity name="Relative static permittivity" units="_">
  <eqno value="120" />
  <A value="-1.404923" />
  <B value="-950" />
  <C value="-5.7" />
  <Tmin units="K" value="274.15" />
  <Tmax units="K" value="444.15" />
  </RelativeStaticPermittivity>
<AntoineVaporPressure name="Antoine" units="Pa">
  <eqno value="10" />
  <A value="20.91" />
  <B value="3242" />
  <C value="-45.986" />
  <Tmin units="K" value="348.27" />
  <Tmax units="K" value="514.25" />
  </AntoineVaporPressure>
<LiquidViscosityRPS name="Liquid viscosity (RPS)" units="Pa.s">
  <eqno value="12" />
  <A value="-2.9795" />
  <B value="-0.014829" />
  <Tmin units="K" value="182.28" />
  <Tmax units="K" value="391.42" />
  </LiquidViscosityRPS>
<COSTALDVolume name="COSTLD characteristic volume (V*)" units="m3/kmol" value="0.486848" />
<DiameterLJ name="Lennard Jones diameter" units="m" value="7.000576E-10" />
<EnergyLJ name="Lennard Jones energy" units="K" value="324.4539" />
<RacketParameter name="Rackett parameter" units="_" value="0.267" />
<FullerVolume name="Fuller et al. diffusion volume" units="_" value="168.78" />
<MatthiasCopemanC2 name="Mathias-Copeman C2" units="_" value="0" />
<Parachor name="Parachor" units="kg0.25.m3/s0.5/kmol" value="0.0603583" />
<SpecificGravity name="Specific gravity" units="_" value="0.731726" />
<Charge name="Charge" units="_" value="0" />
<CostaldAcentricFactor name="SRK acentric factor" units="_" value="0.305" />
<WilsonVolume name="Wilson volume" units="m3/kmol" value="0.15788" />
<UniquacR name="UNIQUAC r" units="_" value="5.8471" />
<UniquacQ name="UNIQUAC q" units="_" value="5.012" />
<ApiSrkS2 name="API-SRK s2" units="_" value="-0.004598" />
<MatthiasCopemanC3 name="Mathias-Copeman C3" units="_" value="0" />
<ChaoSeaderAcentricFactor name="Chao-Seader acentric factor" units="_" value="0.305" />
<ChaoSeaderSolubilityParameter name="Chao-Seader solubility parameter" units="J0.5/m1.5" value="15060" />
<ChaoSeaderLiquidVolume name="Chao-Seader liquid volume" units="m3/kmol" value="0.15788" />
<UnifacVLE name="UNIFAC">
  <group id="1" value="4" />
  <group id="2" value="3" />
  <group id="4" value="1" />
  </UnifacVLE>
<UnifacLLE name="UNIFAC-LLE">
  <group id="1" value="4" />
  <group id="2" value="3" />
  <group id="4" value="1" />
  </UnifacLLE>
<Asog name="ASOG">
  <group id="1" value="4" />
  <group id="2" value="3" />
  <group id="4" value="1" />
  </Asog>
<GCmethod name="PPR78">
  <group id="1" value="4" />
  <group id="2" value="3" />
  <group id="4" value="1" />
  </GCmethod>
<Umr name="UMR">
  <group id="1" value="4" />
  <group id="2" value="3" />
  <group id="4" value="1" />
  </Umr>
<ModifiedUnifac name="Modified UNIFAC">
  <group id="1" value="4" />
  <group id="2" value="3" />
  <group id="4" value="1" />
  </ModifiedUnifac>
<CAS name="CAS number" value="1067-08-9" />
<Smiles name="SMILES" value="CCC(C)(CC)CC" />
</compound>

