<compound>
<LibraryIndex name="Index" value="579" />
<CompoundID name="Name" value="4-ethyl-o-xylene" />
<StructureFormula name="Structure" value="CH3CH2(C6H3)(CH3)2" />
<Family name="Family" value="17" />
<CriticalTemperature name="Critical temperature" units="K" value="666" />
<CriticalPressure name="Critical pressure" units="Pa" value="2890000" />
<CriticalVolume name="Critical volume" units="m3/kmol" value="0.452" />
<CriticalCompressibility name="Critical compressibility factor" units="_" value="0.254" />
<NormalBoilingPointTemperature name="Normal boiling point" units="K" value="462.93" />
<NormalMeltingPointTemperature name="Melting point" units="K" value="206" />
<TriplePointTemperature name="Triple point temperature" units="K" value="206.22" />
<TriplePointPressure name="Triple point pressure" units="Pa" value="0.00343448" />
<MolecularWeight name="Molecular weight" units="kg/kmol" value="134.2182" />
<LiquidVolumeAtNormalBoilingPoint name="Liquid molar volume at normal boiling point" units="m3/kmol" value="0.154172" />
<AcentricityFactor name="Acentric factor" units="_" value="0.42" />
<RadiusOfGyration name="Radius of gyration" units="m" value="4.552E-10" />
<SolubilityParameter name="Solubility parameter" units="J0.5/m1.5" value="17990" />
<VanDerWaalsVolume name="Van der Waals volume" units="m3/kmol" value="0.0920399" />
<VanDerWaalsArea name="Van der Waals area" units="m2/kmol" value="1.161E+09" />
<HeatOfFormation name="IG heat of formation" units="J/kmol" value="-3.209E+07" />
<GibbsEnergyOfFormation name="IG Gibbs energy of formation" units="J/kmol" value="1.274E+08" />
<AbsEntropy name="IG absolute entropy" units="J/kmol/K" value="436600" />
<HeatOfFusionAtMeltingPoint name="Heat of fusion at melting point" units="J/kmol" value="1.205E+07" />
<MatthiasCopemanC1 name="Mathias-Copeman C1" units="_" value="1.11" />
<HeatOfCombustion name="Standard net heat of combustion LHV" units="J/kmol" value="-5.542E+09" />
<SolidDensity name="Solid density" units="kmol/m3">
  <eqno value="2" />
  <A value="8.8776" />
  <B value="-0.0047766" />
  <C value="0" />
  <D value="0" />
  <E value="0" />
  <Tmin units="K" value="82.49" />
  <Tmax units="K" value="206.22" />
  </SolidDensity>
<LiquidDensity name="Liquid density" units="kmol/m3">
  <eqno value="105" />
  <A value="0.54664" />
  <B value="0.26088" />
  <C value="666" />
  <D value="0.29186" />
  <Tmin units="K" value="206.22" />
  <Tmax units="K" value="642.75" />
  </LiquidDensity>
<VaporPressure name="Vapour pressure" units="Pa">
  <eqno value="101" />
  <A value="96.694" />
  <B value="-9142.9" />
  <C value="-10.852" />
  <D value="0.0000055519" />
  <E value="2" />
  <Tmin units="K" value="206.22" />
  <Tmax units="K" value="667" />
  </VaporPressure>
<HeatOfVaporization name="Heat of vaporization" units="J/kmol">
  <eqno value="106" />
  <A value="4.3714E+07" />
  <B value="-2.7554" />
  <C value="9.4578" />
  <D value="-11.023" />
  <E value="4.6307" />
  <Tmin units="K" value="206.22" />
  <Tmax units="K" value="642.75" />
  </HeatOfVaporization>
<SolidHeatCapacityCp name="Solid heat capacity" units="J/kmol/K">
  <eqno value="1" />
  <A value="214740" />
  <Tmin units="K" value="0" />
  <Tmax units="K" value="666" />
  </SolidHeatCapacityCp>
<LiquidHeatCapacityCp name="Liquid heat capacity" units="J/kmol/K">
  <eqno value="16" />
  <A value="89767" />
  <B value="-77.889" />
  <C value="11.113" />
  <D value="0.0049399" />
  <E value="-0.0000039958" />
  <Tmin units="K" value="298.15" />
  <Tmax units="K" value="462.93" />
  </LiquidHeatCapacityCp>
<IdealGasHeatCapacityCp name="Ideal gas heat capacity" units="J/kmol/K">
  <eqno value="16" />
  <A value="90693" />
  <B value="-533.27" />
  <C value="13.139" />
  <D value="0.00014143" />
  <E value="-6.0863E-08" />
  <Tmin units="K" value="298.15" />
  <Tmax units="K" value="1500" />
  </IdealGasHeatCapacityCp>
<SecondVirialCoefficient name="Second virial coefficient" units="m3/kmol">
  <eqno value="104" />
  <A value="0.37792" />
  <B value="-498.77" />
  <C value="-87.527" />
  <D value="-88381" />
  <E value="187860" />
  <Tmin units="K" value="333" />
  <Tmax units="K" value="1500" />
  </SecondVirialCoefficient>
<LiquidViscosity name="Liquid viscosity" units="Pa.s">
  <eqno value="101" />
  <A value="-9.1159" />
  <B value="1410.6" />
  <C value="-0.43411" />
  <D value="7.8135E-07" />
  <E value="2" />
  <Tmin units="K" value="206.22" />
  <Tmax units="K" value="573" />
  </LiquidViscosity>
<VaporViscosity name="Vapour viscosity" units="Pa.s">
  <eqno value="102" />
  <A value="5.8567E-07" />
  <B value="0.52279" />
  <C value="312.52" />
  <D value="-1851" />
  <Tmin units="K" value="206.22" />
  <Tmax units="K" value="1000" />
  </VaporViscosity>
<LiquidThermalConductivity name="Liquid thermal conductivity" units="W/m/K">
  <eqno value="16" />
  <A value="-0.061613" />
  <B value="4.0176" />
  <C value="-1.4936" />
  <D value="-0.00037218" />
  <E value="-9.9721E-07" />
  <Tmin units="K" value="206.22" />
  <Tmax units="K" value="462.93" />
  </LiquidThermalConductivity>
<VaporThermalConductivity name="Vapour thermal conductivity" units="W/m/K">
  <eqno value="102" />
  <A value="0.000083697" />
  <B value="1.0475" />
  <C value="520.73" />
  <D value="45665" />
  <Tmin units="K" value="206.22" />
  <Tmax units="K" value="1000" />
  </VaporThermalConductivity>
<SurfaceTension name="Surface tension" units="N/m">
  <eqno value="16" />
  <A value="-0.021075" />
  <B value="39.933" />
  <C value="-2.7814" />
  <D value="-0.00042216" />
  <E value="-0.0000020214" />
  <Tmin units="K" value="206.22" />
  <Tmax units="K" value="642.75" />
  </SurfaceTension>
<RPPHeatCapacityCp name="Ideal gas heat capacity (RPP)" units="J/kmol/K">
  <eqno value="4" />
  <A value="-20399" />
  <B value="799.64" />
  <C value="-0.46931" />
  <D value="0.00010452" />
  <Tmin units="K" value="298.15" />
  <Tmax units="K" value="1500" />
  </RPPHeatCapacityCp>
<AntoineVaporPressure name="Antoine" units="Pa">
  <eqno value="10" />
  <A value="21.317" />
  <B value="3913.1" />
  <C value="-63.321" />
  <Tmin units="K" value="400.23" />
  <Tmax units="K" value="594.25" />
  </AntoineVaporPressure>
<LiquidViscosityRPS name="Liquid viscosity (RPS)" units="Pa.s">
  <eqno value="12" />
  <A value="-2.0327" />
  <B value="-0.015022" />
  <Tmin units="K" value="206.22" />
  <Tmax units="K" value="462.93" />
  </LiquidViscosityRPS>
<COSTALDVolume name="COSTLD characteristic volume (V*)" units="m3/kmol" value="0.507256" />
<DiameterLJ name="Lennard Jones diameter" units="m" value="7.415788E-10" />
<EnergyLJ name="Lennard Jones energy" units="K" value="313.1763" />
<RacketParameter name="Rackett parameter" units="_" value="0.254" />
<FullerVolume name="Fuller et al. diffusion volume" units="_" value="173.04" />
<MatthiasCopemanC2 name="Mathias-Copeman C2" units="_" value="0" />
<Parachor name="Parachor" units="kg0.25.m3/s0.5/kmol" value="0.0648412" />
<SpecificGravity name="Specific gravity" units="_" value="0.878797" />
<Charge name="Charge" units="_" value="0" />
<CostaldAcentricFactor name="SRK acentric factor" units="_" value="0.42" />
<WilsonVolume name="Wilson volume" units="m3/kmol" value="0.154172" />
<UniquacR name="UNIQUAC r" units="_" value="6.0672" />
<UniquacQ name="UNIQUAC q" units="_" value="4.644" />
<MatthiasCopemanC3 name="Mathias-Copeman C3" units="_" value="0" />
<ChaoSeaderAcentricFactor name="Chao-Seader acentric factor" units="_" value="0.42" />
<ChaoSeaderSolubilityParameter name="Chao-Seader solubility parameter" units="J0.5/m1.5" value="17990" />
<ChaoSeaderLiquidVolume name="Chao-Seader liquid volume" units="m3/kmol" value="0.154172" />
<UnifacVLE name="UNIFAC">
  <group id="1" value="1" />
  <group id="10" value="3" />
  <group id="12" value="2" />
  <group id="13" value="1" />
  </UnifacVLE>
<UnifacLLE name="UNIFAC-LLE">
  <group id="1" value="1" />
  <group id="9" value="3" />
  <group id="11" value="2" />
  <group id="12" value="1" />
  </UnifacLLE>
<Asog name="ASOG">
  <group id="1" value="3" />
  <group id="2" value="1" />
  <group id="10" value="3" />
  <group id="11" value="3" />
  </Asog>
<GCmethod name="PPR78">
  <group id="1" value="3" />
  <group id="7" value="3" />
  <group id="8" value="3" />
  <group id="2" value="1" />
  </GCmethod>
<Umr name="UMR">
  <group id="1" value="1" />
  <group id="10" value="3" />
  <group id="12" value="2" />
  <group id="13" value="1" />
  </Umr>
<ModifiedUnifac name="Modified UNIFAC">
  <group id="1" value="1" />
  <group id="9" value="3" />
  <group id="11" value="2" />
  <group id="12" value="1" />
  </ModifiedUnifac>
<CAS name="CAS number" value="934-80-5" />
<Smiles name="SMILES" value="c1(C)c(C)cc(CC)cc1" />
</compound>

