<compound>
<LibraryIndex name="Index" value="1058" />
<CompoundID name="Name" value="4-heptanone" />
<StructureFormula name="Structure" value="(CH3CH2CH2)2CO" />
<Family name="Family" value="26" />
<CriticalTemperature name="Critical temperature" units="K" value="595" />
<CriticalPressure name="Critical pressure" units="Pa" value="2920000" />
<CriticalVolume name="Critical volume" units="m3/kmol" value="0.421" />
<CriticalCompressibility name="Critical compressibility factor" units="_" value="0.253" />
<NormalBoilingPointTemperature name="Normal boiling point" units="K" value="417.15" />
<NormalMeltingPointTemperature name="Melting point" units="K" value="240.65" />
<TriplePointTemperature name="Triple point temperature" units="K" value="240.65" />
<TriplePointPressure name="Triple point pressure" units="Pa" value="7.95766" />
<MolecularWeight name="Molecular weight" units="kg/kmol" value="114.1855" />
<LiquidVolumeAtNormalBoilingPoint name="Liquid molar volume at normal boiling point" units="m3/kmol" value="0.140625" />
<AcentricityFactor name="Acentric factor" units="_" value="0.471409" />
<RadiusOfGyration name="Radius of gyration" units="m" value="4.567E-10" />
<SolubilityParameter name="Solubility parameter" units="J0.5/m1.5" value="17410" />
<DipoleMoment name="Dipole moment" units="Coulomb.m" value="8.34E-30" />
<VanDerWaalsVolume name="Van der Waals volume" units="m3/kmol" value="0.07996" />
<VanDerWaalsArea name="Van der Waals area" units="m2/kmol" value="1.124E+09" />
<HeatOfFormation name="IG heat of formation" units="J/kmol" value="-3.01E+08" />
<GibbsEnergyOfFormation name="IG Gibbs energy of formation" units="J/kmol" value="-1.196E+08" />
<AbsEntropy name="IG absolute entropy" units="J/kmol/K" value="448600" />
<HeatOfFusionAtMeltingPoint name="Heat of fusion at melting point" units="J/kmol" value="1.86E+07" />
<MatthiasCopemanC1 name="Mathias-Copeman C1" units="_" value="1.18" />
<HeatOfCombustion name="Standard net heat of combustion LHV" units="J/kmol" value="-4.09E+09" />
<SolidDensity name="Solid density" units="kmol/m3">
  <eqno value="100" />
  <A value="9.6566" />
  <B value="-0.0050159" />
  <C value="0" />
  <D value="0" />
  <E value="0" />
  <Tmin units="K" value="96.26" />
  <Tmax units="K" value="240.65" />
  </SolidDensity>
<LiquidDensity name="Liquid density" units="kmol/m3">
  <eqno value="105" />
  <A value="0.78297" />
  <B value="0.29215" />
  <C value="595" />
  <D value="0.33209" />
  <Tmin units="K" value="240.65" />
  <Tmax units="K" value="582.98" />
  </LiquidDensity>
<VaporPressure name="Vapour pressure" units="Pa">
  <eqno value="101" />
  <A value="121.5579" />
  <B value="-9310.284" />
  <C value="-14.85267" />
  <D value="0.000010781" />
  <E value="2" />
  <Tmin units="K" value="240.65" />
  <Tmax units="K" value="602" />
  </VaporPressure>
<HeatOfVaporization name="Heat of vaporization" units="J/kmol">
  <eqno value="106" />
  <A value="6.630562E+07" />
  <B value="0.51436" />
  <C value="0.600897" />
  <D value="-1.414428" />
  <E value="0.688564" />
  <Tmin units="K" value="240.65" />
  <Tmax units="K" value="582.98" />
  </HeatOfVaporization>
<SolidHeatCapacityCp name="Solid heat capacity" units="J/kmol/K">
  <eqno value="102" />
  <A value="2320" />
  <B value="0.79267" />
  <C value="0" />
  <D value="0" />
  <Tmin units="K" value="50" />
  <Tmax units="K" value="240.65" />
  </SolidHeatCapacityCp>
<LiquidHeatCapacityCp name="Liquid heat capacity" units="J/kmol/K">
  <eqno value="16" />
  <A value="209750" />
  <B value="222.65" />
  <C value="6.403" />
  <D value="0.014092" />
  <E value="-0.0000084677" />
  <Tmin units="K" value="240" />
  <Tmax units="K" value="480" />
  </LiquidHeatCapacityCp>
<IdealGasHeatCapacityCp name="Ideal gas heat capacity" units="J/kmol/K">
  <eqno value="16" />
  <A value="121670" />
  <B value="-659.01" />
  <C value="13.093" />
  <D value="0.000016432" />
  <E value="-4.1637E-08" />
  <Tmin units="K" value="200" />
  <Tmax units="K" value="1500" />
  </IdealGasHeatCapacityCp>
<SecondVirialCoefficient name="Second virial coefficient" units="m3/kmol">
  <eqno value="104" />
  <A value="0.12631" />
  <B value="-98.502" />
  <C value="-131.43" />
  <D value="74661" />
  <E value="-250200" />
  <Tmin units="K" value="287.5" />
  <Tmax units="K" value="1500" />
  </SecondVirialCoefficient>
<LiquidViscosity name="Liquid viscosity" units="Pa.s">
  <eqno value="101" />
  <A value="-29.013" />
  <B value="1989.1" />
  <C value="2.6786" />
  <D value="-0.0000019943" />
  <E value="2" />
  <Tmin units="K" value="240.65" />
  <Tmax units="K" value="505" />
  </LiquidViscosity>
<VaporViscosity name="Vapour viscosity" units="Pa.s">
  <eqno value="102" />
  <A value="1.5516E-07" />
  <B value="0.71327" />
  <C value="190.48" />
  <D value="-6907.5" />
  <Tmin units="K" value="240.65" />
  <Tmax units="K" value="1000" />
  </VaporViscosity>
<LiquidThermalConductivity name="Liquid thermal conductivity" units="W/m/K">
  <eqno value="16" />
  <A value="-0.084176" />
  <B value="-5.3333" />
  <C value="-1.1753" />
  <D value="-0.00094427" />
  <E value="-3.0728E-07" />
  <Tmin units="K" value="240.65" />
  <Tmax units="K" value="553.15" />
  </LiquidThermalConductivity>
<VaporThermalConductivity name="Vapour thermal conductivity" units="W/m/K">
  <eqno value="102" />
  <A value="2007.9" />
  <B value="1.0403" />
  <C value="2.325E+10" />
  <D value="-1.556E+11" />
  <Tmin units="K" value="240.65" />
  <Tmax units="K" value="1000" />
  </VaporThermalConductivity>
<SurfaceTension name="Surface tension" units="N/m">
  <eqno value="16" />
  <A value="-0.009316" />
  <B value="8.2096" />
  <C value="-3.0266" />
  <D value="0.00040508" />
  <E value="-0.0000054492" />
  <Tmin units="K" value="240.65" />
  <Tmax units="K" value="582.98" />
  </SurfaceTension>
<RPPHeatCapacityCp name="Ideal gas heat capacity (RPP)" units="J/kmol/K">
  <eqno value="4" />
  <A value="36724" />
  <B value="544.28" />
  <C value="-0.2504" />
  <D value="0.000036307" />
  <Tmin units="K" value="200" />
  <Tmax units="K" value="1500" />
  </RPPHeatCapacityCp>
<RelativeStaticPermittivity name="Relative static permittivity" units="_">
  <eqno value="120" />
  <A value="-11.21128" />
  <B value="-5950" />
  <C value="-35.7" />
  <Tmin units="K" value="274.15" />
  <Tmax units="K" value="444.15" />
  </RelativeStaticPermittivity>
<AntoineVaporPressure name="Antoine" units="Pa">
  <eqno value="10" />
  <A value="21.277" />
  <B value="3488.9" />
  <C value="-59.687" />
  <Tmin units="K" value="358.41" />
  <Tmax units="K" value="529.73" />
  </AntoineVaporPressure>
<LiquidViscosityRPS name="Liquid viscosity (RPS)" units="Pa.s">
  <eqno value="12" />
  <A value="-3.4939" />
  <B value="-0.012328" />
  <Tmin units="K" value="240.65" />
  <Tmax units="K" value="417.15" />
  </LiquidViscosityRPS>
<COSTALDVolume name="COSTLD characteristic volume (V*)" units="m3/kmol" value="0.434587" />
<DiameterLJ name="Lennard Jones diameter" units="m" value="7.276587E-10" />
<EnergyLJ name="Lennard Jones energy" units="K" value="275.8443" />
<RacketParameter name="Rackett parameter" units="_" value="0.253" />
<FullerVolume name="Fuller et al. diffusion volume" units="_" value="149.75" />
<MatthiasCopemanC2 name="Mathias-Copeman C2" units="_" value="0" />
<Parachor name="Parachor" units="kg0.25.m3/s0.5/kmol" value="0.0559243" />
<SpecificGravity name="Specific gravity" units="_" value="0.821925" />
<Charge name="Charge" units="_" value="0" />
<CostaldAcentricFactor name="SRK acentric factor" units="_" value="0.471409" />
<WilsonVolume name="Wilson volume" units="m3/kmol" value="0.140625" />
<UniquacR name="UNIQUAC r" units="_" value="5.2711" />
<UniquacQ name="UNIQUAC q" units="_" value="4.496" />
<MatthiasCopemanC3 name="Mathias-Copeman C3" units="_" value="0" />
<ChaoSeaderAcentricFactor name="Chao-Seader acentric factor" units="_" value="0.411976" />
<ChaoSeaderSolubilityParameter name="Chao-Seader solubility parameter" units="J0.5/m1.5" value="17410" />
<ChaoSeaderLiquidVolume name="Chao-Seader liquid volume" units="m3/kmol" value="0.140625" />
<UnifacVLE name="UNIFAC">
  <group id="1" value="2" />
  <group id="2" value="3" />
  <group id="20" value="1" />
  </UnifacVLE>
<UnifacLLE name="UNIFAC-LLE">
  <group id="1" value="2" />
  <group id="2" value="3" />
  <group id="20" value="1" />
  </UnifacLLE>
<Asog name="ASOG">
  <group id="1" value="2" />
  <group id="2" value="4" />
  <group id="18" value="1" />
  </Asog>
<Umr name="UMR">
  <group id="1" value="2" />
  <group id="2" value="3" />
  <group id="20" value="1" />
  </Umr>
<ModifiedUnifac name="Modified UNIFAC">
  <group id="1" value="2" />
  <group id="2" value="3" />
  <group id="19" value="1" />
  </ModifiedUnifac>
<CAS name="CAS number" value="123-19-3" />
<Smiles name="SMILES" value="CCCC(=O)CCC" />
</compound>

