<compound>
<LibraryIndex name="Index" value="93" />
<CompoundID name="Name" value="4-methyloctane" />
<StructureFormula name="Structure" value="CH3(CH2)2CHCH3(CH2)3CH3" />
<Family name="Family" value="2" />
<CriticalTemperature name="Critical temperature" units="K" value="587.65" />
<CriticalPressure name="Critical pressure" units="Pa" value="2340000" />
<CriticalVolume name="Critical volume" units="m3/kmol" value="0.523" />
<CriticalCompressibility name="Critical compressibility factor" units="_" value="0.25" />
<NormalBoilingPointTemperature name="Normal boiling point" units="K" value="415.59" />
<NormalMeltingPointTemperature name="Melting point" units="K" value="159.95" />
<TriplePointTemperature name="Triple point temperature" units="K" value="159.95" />
<TriplePointPressure name="Triple point pressure" units="Pa" value="0.0000317697" />
<MolecularWeight name="Molecular weight" units="kg/kmol" value="128.2551" />
<LiquidVolumeAtNormalBoilingPoint name="Liquid molar volume at normal boiling point" units="m3/kmol" value="0.179037" />
<AcentricityFactor name="Acentric factor" units="_" value="0.412925" />
<RadiusOfGyration name="Radius of gyration" units="m" value="4.772E-10" />
<SolubilityParameter name="Solubility parameter" units="J0.5/m1.5" value="15300" />
<DipoleMoment name="Dipole moment" units="Coulomb.m" value="0" />
<VanDerWaalsVolume name="Van der Waals volume" units="m3/kmol" value="0.09894" />
<VanDerWaalsArea name="Van der Waals area" units="m2/kmol" value="1.368E+09" />
<HeatOfFormation name="IG heat of formation" units="J/kmol" value="-2.336E+08" />
<GibbsEnergyOfFormation name="IG Gibbs energy of formation" units="J/kmol" value="2.17E+07" />
<AbsEntropy name="IG absolute entropy" units="J/kmol/K" value="501660" />
<HeatOfFusionAtMeltingPoint name="Heat of fusion at melting point" units="J/kmol" value="1.6E+07" />
<HeatOfCombustion name="Standard net heat of combustion LHV" units="J/kmol" value="-5.68166E+09" />
<SolidDensity name="Solid density" units="kmol/m3">
  <eqno value="2" />
  <A value="8.0556" />
  <B value="-0.0055544" />
  <C value="0" />
  <D value="0" />
  <E value="0" />
  <Tmin units="K" value="63.98" />
  <Tmax units="K" value="159.95" />
  </SolidDensity>
<LiquidDensity name="Liquid density" units="kmol/m3">
  <eqno value="105" />
  <A value="0.51336" />
  <B value="0.26824" />
  <C value="587.65" />
  <D value="0.29075" />
  <Tmin units="K" value="159.95" />
  <Tmax units="K" value="587.65" />
  </LiquidDensity>
<VaporPressure name="Vapour pressure" units="Pa">
  <eqno value="101" />
  <A value="168.4912" />
  <B value="-11138.63" />
  <C value="-22.13486" />
  <D value="0.0000188399" />
  <E value="2" />
  <Tmin units="K" value="159.95" />
  <Tmax units="K" value="587.65" />
  </VaporPressure>
<HeatOfVaporization name="Heat of vaporization" units="J/kmol">
  <eqno value="106" />
  <A value="6.2916E+07" />
  <B value="0.7446" />
  <C value="-0.80882" />
  <D value="0.80228" />
  <E value="-0.33895" />
  <Tmin units="K" value="159.95" />
  <Tmax units="K" value="587.65" />
  </HeatOfVaporization>
<SolidHeatCapacityCp name="Solid heat capacity" units="J/kmol/K">
  <eqno value="1" />
  <A value="249210" />
  <Tmin units="K" value="0" />
  <Tmax units="K" value="587.65" />
  </SolidHeatCapacityCp>
<LiquidHeatCapacityCp name="Liquid heat capacity" units="J/kmol/K">
  <eqno value="16" />
  <A value="71582" />
  <B value="100.57" />
  <C value="10.612" />
  <D value="0.0050783" />
  <E value="-0.0000024905" />
  <Tmin units="K" value="159.95" />
  <Tmax units="K" value="500" />
  </LiquidHeatCapacityCp>
<IdealGasHeatCapacityCp name="Ideal gas heat capacity" units="J/kmol/K">
  <eqno value="16" />
  <A value="116790" />
  <B value="-588.34" />
  <C value="13.412" />
  <D value="0.000015201" />
  <E value="-1.4561E-08" />
  <Tmin units="K" value="150" />
  <Tmax units="K" value="1500" />
  </IdealGasHeatCapacityCp>
<SecondVirialCoefficient name="Second virial coefficient" units="m3/kmol">
  <eqno value="104" />
  <A value="0.30648" />
  <B value="-389" />
  <C value="-74.826" />
  <D value="-18071" />
  <E value="28356" />
  <Tmin units="K" value="293.82" />
  <Tmax units="K" value="1877.83" />
  </SecondVirialCoefficient>
<LiquidViscosity name="Liquid viscosity" units="Pa.s">
  <eqno value="101" />
  <A value="-11.837" />
  <B value="1162" />
  <C value="0.077237" />
  <D value="-2.6336E-07" />
  <E value="2" />
  <Tmin units="K" value="159.95" />
  <Tmax units="K" value="470.12" />
  </LiquidViscosity>
<VaporViscosity name="Vapour viscosity" units="Pa.s">
  <eqno value="102" />
  <A value="3.2706E-07" />
  <B value="0.5848" />
  <C value="183.92" />
  <D value="0.068678" />
  <Tmin units="K" value="159.95" />
  <Tmax units="K" value="1000" />
  </VaporViscosity>
<LiquidThermalConductivity name="Liquid thermal conductivity" units="W/m/K">
  <eqno value="16" />
  <A value="-0.1663" />
  <B value="9.2848" />
  <C value="-1.1068" />
  <D value="-0.00028405" />
  <E value="-0.0000007408" />
  <Tmin units="K" value="159.95" />
  <Tmax units="K" value="470" />
  </LiquidThermalConductivity>
<VaporThermalConductivity name="Vapour thermal conductivity" units="W/m/K">
  <eqno value="102" />
  <A value="0.000038784" />
  <B value="1.117" />
  <C value="-185.06" />
  <D value="177130" />
  <Tmin units="K" value="159.95" />
  <Tmax units="K" value="1000" />
  </VaporThermalConductivity>
<SurfaceTension name="Surface tension" units="N/m">
  <eqno value="16" />
  <A value="-0.0090133" />
  <B value="27.989" />
  <C value="-3.1772" />
  <D value="0.00013817" />
  <E value="-0.0000048752" />
  <Tmin units="K" value="159.95" />
  <Tmax units="K" value="587.65" />
  </SurfaceTension>
<RPPHeatCapacityCp name="Ideal gas heat capacity (RPP)" units="J/kmol/K">
  <eqno value="4" />
  <A value="1160.7" />
  <B value="826.4" />
  <C value="-0.41015" />
  <D value="0.000072067" />
  <Tmin units="K" value="150" />
  <Tmax units="K" value="1500" />
  </RPPHeatCapacityCp>
<AntoineVaporPressure name="Antoine" units="Pa">
  <eqno value="10" />
  <A value="20.596" />
  <B value="3082.6" />
  <C value="-75.645" />
  <Tmin units="K" value="353.15" />
  <Tmax units="K" value="520.12" />
  </AntoineVaporPressure>
<LiquidViscosityRPS name="Liquid viscosity (RPS)" units="Pa.s">
  <eqno value="12" />
  <A value="-2.3456" />
  <B value="-0.016308" />
  <Tmin units="K" value="159.95" />
  <Tmax units="K" value="415.59" />
  </LiquidViscosityRPS>
<COSTALDVolume name="COSTLD characteristic volume (V*)" units="m3/kmol" value="0.550226" />
<DiameterLJ name="Lennard Jones diameter" units="m" value="7.935072E-10" />
<EnergyLJ name="Lennard Jones energy" units="K" value="260.9853" />
<RacketParameter name="Rackett parameter" units="_" value="0.25" />
<FullerVolume name="Fuller et al. diffusion volume" units="_" value="189.3" />
<Parachor name="Parachor" units="kg0.25.m3/s0.5/kmol" value="0.0683237" />
<SpecificGravity name="Specific gravity" units="_" value="0.724328" />
<Charge name="Charge" units="_" value="0" />
<CostaldAcentricFactor name="SRK acentric factor" units="_" value="0.412925" />
<WilsonVolume name="Wilson volume" units="m3/kmol" value="0.179037" />
<UniquacR name="UNIQUAC r" units="_" value="6.5222" />
<UniquacQ name="UNIQUAC q" units="_" value="5.472" />
<ChaoSeaderAcentricFactor name="Chao-Seader acentric factor" units="_" value="0.412925" />
<ChaoSeaderSolubilityParameter name="Chao-Seader solubility parameter" units="J0.5/m1.5" value="15300" />
<ChaoSeaderLiquidVolume name="Chao-Seader liquid volume" units="m3/kmol" value="0.179037" />
<UnifacVLE name="UNIFAC">
  <group id="1" value="3" />
  <group id="2" value="5" />
  <group id="3" value="1" />
  </UnifacVLE>
<UnifacLLE name="UNIFAC-LLE">
  <group id="1" value="3" />
  <group id="2" value="5" />
  <group id="3" value="1" />
  </UnifacLLE>
<Asog name="ASOG">
  <group id="1" value="3" />
  <group id="2" value="5" />
  <group id="3" value="1" />
  </Asog>
<GCmethod name="PPR78">
  <group id="1" value="3" />
  <group id="2" value="5" />
  <group id="3" value="1" />
  </GCmethod>
<Umr name="UMR">
  <group id="1" value="3" />
  <group id="2" value="5" />
  <group id="3" value="1" />
  </Umr>
<ModifiedUnifac name="Modified UNIFAC">
  <group id="1" value="3" />
  <group id="2" value="5" />
  <group id="3" value="1" />
  </ModifiedUnifac>
<CAS name="CAS number" value="2216-34-4" />
<Smiles name="SMILES" value="CCCC(C)CCCC" />
</compound>

