<compound>
<LibraryIndex name="Index" value="87" />
<CompoundID name="Name" value="4-methylnonane" />
<StructureFormula name="Structure" value="CH3(CH2)2CH(CH3)(CH2)4CH3" />
<Family name="Family" value="2" />
<CriticalTemperature name="Critical temperature" units="K" value="613.7" />
<CriticalPressure name="Critical pressure" units="Pa" value="2140000" />
<CriticalVolume name="Critical volume" units="m3/kmol" value="0.5904" />
<CriticalCompressibility name="Critical compressibility factor" units="_" value="0.248" />
<NormalBoilingPointTemperature name="Normal boiling point" units="K" value="438.85" />
<NormalMeltingPointTemperature name="Melting point" units="K" value="174.45" />
<TriplePointTemperature name="Triple point temperature" units="K" value="174.45" />
<TriplePointPressure name="Triple point pressure" units="Pa" value="0.000108068" />
<MolecularWeight name="Molecular weight" units="kg/kmol" value="142.2817" />
<LiquidVolumeAtNormalBoilingPoint name="Liquid molar volume at normal boiling point" units="m3/kmol" value="0.195426" />
<AcentricityFactor name="Acentric factor" units="_" value="0.465073" />
<RadiusOfGyration name="Radius of gyration" units="m" value="5.265E-10" />
<SolubilityParameter name="Solubility parameter" units="J0.5/m1.5" value="15500" />
<DipoleMoment name="Dipole moment" units="Coulomb.m" value="0" />
<VanDerWaalsVolume name="Van der Waals volume" units="m3/kmol" value="0.10917" />
<VanDerWaalsArea name="Van der Waals area" units="m2/kmol" value="1.503E+09" />
<HeatOfFormation name="IG heat of formation" units="J/kmol" value="-2.547E+08" />
<GibbsEnergyOfFormation name="IG Gibbs energy of formation" units="J/kmol" value="2.89E+07" />
<AbsEntropy name="IG absolute entropy" units="J/kmol/K" value="541900" />
<HeatOfFusionAtMeltingPoint name="Heat of fusion at melting point" units="J/kmol" value="1.52E+07" />
<HeatOfCombustion name="Standard net heat of combustion LHV" units="J/kmol" value="-6.291E+09" />
<SolidDensity name="Solid density" units="kmol/m3">
  <eqno value="2" />
  <A value="7.2988" />
  <B value="-0.0046485" />
  <C value="0" />
  <D value="0" />
  <E value="0" />
  <Tmin units="K" value="69.78" />
  <Tmax units="K" value="174.45" />
  </SolidDensity>
<LiquidDensity name="Liquid density" units="kmol/m3">
  <eqno value="105" />
  <A value="0.046753" />
  <B value="0.085687" />
  <C value="613.7" />
  <D value="0.13909" />
  <Tmin units="K" value="174.45" />
  <Tmax units="K" value="610" />
  </LiquidDensity>
<VaporPressure name="Vapour pressure" units="Pa">
  <eqno value="101" />
  <A value="143.6866" />
  <B value="-10632.15" />
  <C value="-18.17547" />
  <D value="0.0000137486" />
  <E value="2" />
  <Tmin units="K" value="174.45" />
  <Tmax units="K" value="610" />
  </VaporPressure>
<HeatOfVaporization name="Heat of vaporization" units="J/kmol">
  <eqno value="106" />
  <A value="6.2873E+07" />
  <B value="0.39496" />
  <C value="-0.054115" />
  <D value="0.081779" />
  <E value="-0.040701" />
  <Tmin units="K" value="174.45" />
  <Tmax units="K" value="610" />
  </HeatOfVaporization>
<SolidHeatCapacityCp name="Solid heat capacity" units="J/kmol/K">
  <eqno value="100" />
  <A value="1327700" />
  <B value="-47867" />
  <C value="675.59" />
  <D value="-4.0824" />
  <E value="0.0090781" />
  <Tmin units="K" value="80" />
  <Tmax units="K" value="160" />
  </SolidHeatCapacityCp>
<LiquidHeatCapacityCp name="Liquid heat capacity" units="J/kmol/K">
  <eqno value="16" />
  <A value="41953" />
  <B value="56.5" />
  <C value="11.484" />
  <D value="0.0029861" />
  <E value="-0.0000006055" />
  <Tmin units="K" value="120" />
  <Tmax units="K" value="580" />
  </LiquidHeatCapacityCp>
<IdealGasHeatCapacityCp name="Ideal gas heat capacity" units="J/kmol/K">
  <eqno value="16" />
  <A value="130820" />
  <B value="-589.61" />
  <C value="13.519" />
  <D value="-0.0000013811" />
  <E value="-1.0182E-08" />
  <Tmin units="K" value="150" />
  <Tmax units="K" value="1500" />
  </IdealGasHeatCapacityCp>
<SecondVirialCoefficient name="Second virial coefficient" units="m3/kmol">
  <eqno value="104" />
  <A value="0.34066" />
  <B value="-433.78" />
  <C value="-97.746" />
  <D value="-34416" />
  <E value="59442" />
  <Tmin units="K" value="305" />
  <Tmax units="K" value="1500" />
  </SecondVirialCoefficient>
<LiquidViscosity name="Liquid viscosity" units="Pa.s">
  <eqno value="101" />
  <A value="-8.7174" />
  <B value="1148.5" />
  <C value="-0.42278" />
  <D value="0.000000818" />
  <E value="2" />
  <Tmin units="K" value="174.45" />
  <Tmax units="K" value="491" />
  </LiquidViscosity>
<VaporViscosity name="Vapour viscosity" units="Pa.s">
  <eqno value="102" />
  <A value="5.0899E-07" />
  <B value="0.5228" />
  <C value="260.59" />
  <D value="-971.93" />
  <Tmin units="K" value="174.45" />
  <Tmax units="K" value="1000" />
  </VaporViscosity>
<LiquidThermalConductivity name="Liquid thermal conductivity" units="W/m/K">
  <eqno value="16" />
  <A value="-0.16198" />
  <B value="12.531" />
  <C value="-1.1439" />
  <D value="-0.00019006" />
  <E value="-7.9079E-07" />
  <Tmin units="K" value="174.45" />
  <Tmax units="K" value="488" />
  </LiquidThermalConductivity>
<VaporThermalConductivity name="Vapour thermal conductivity" units="W/m/K">
  <eqno value="102" />
  <A value="0.000039332" />
  <B value="1.1131" />
  <C value="-152.11" />
  <D value="174490" />
  <Tmin units="K" value="174.45" />
  <Tmax units="K" value="1000" />
  </VaporThermalConductivity>
<SurfaceTension name="Surface tension" units="N/m">
  <eqno value="16" />
  <A value="-0.0091915" />
  <B value="41.648" />
  <C value="-3.2196" />
  <D value="0.0001215" />
  <E value="-0.0000043751" />
  <Tmin units="K" value="174.45" />
  <Tmax units="K" value="610" />
  </SurfaceTension>
<RPPHeatCapacityCp name="Ideal gas heat capacity (RPP)" units="J/kmol/K">
  <eqno value="4" />
  <A value="3419.1" />
  <B value="914.32" />
  <C value="-0.46014" />
  <D value="0.000082394" />
  <Tmin units="K" value="150" />
  <Tmax units="K" value="1500" />
  </RPPHeatCapacityCp>
<AntoineVaporPressure name="Antoine" units="Pa">
  <eqno value="10" />
  <A value="20.928" />
  <B value="3434.7" />
  <C value="-73.509" />
  <Tmin units="K" value="374.15" />
  <Tmax units="K" value="541.23" />
  </AntoineVaporPressure>
<LiquidViscosityRPS name="Liquid viscosity (RPS)" units="Pa.s">
  <eqno value="12" />
  <A value="-2.4192" />
  <B value="-0.015045" />
  <Tmin units="K" value="174.45" />
  <Tmax units="K" value="438.85" />
  </LiquidViscosityRPS>
<COSTALDVolume name="COSTLD characteristic volume (V*)" units="m3/kmol" value="0.616046" />
<DiameterLJ name="Lennard Jones diameter" units="m" value="8.342286E-10" />
<EnergyLJ name="Lennard Jones energy" units="K" value="264.7862" />
<RacketParameter name="Rackett parameter" units="_" value="0.248" />
<FullerVolume name="Fuller et al. diffusion volume" units="_" value="209.82" />
<Parachor name="Parachor" units="kg0.25.m3/s0.5/kmol" value="0.0754875" />
<SpecificGravity name="Specific gravity" units="_" value="0.736664" />
<Charge name="Charge" units="_" value="0" />
<CostaldAcentricFactor name="SRK acentric factor" units="_" value="0.465073" />
<WilsonVolume name="Wilson volume" units="m3/kmol" value="0.195426" />
<UniquacR name="UNIQUAC r" units="_" value="7.196599" />
<UniquacQ name="UNIQUAC q" units="_" value="6.012" />
<ChaoSeaderAcentricFactor name="Chao-Seader acentric factor" units="_" value="0.465073" />
<ChaoSeaderSolubilityParameter name="Chao-Seader solubility parameter" units="J0.5/m1.5" value="15500" />
<ChaoSeaderLiquidVolume name="Chao-Seader liquid volume" units="m3/kmol" value="0.195426" />
<UnifacVLE name="UNIFAC">
  <group id="1" value="3" />
  <group id="2" value="6" />
  <group id="3" value="1" />
  </UnifacVLE>
<UnifacLLE name="UNIFAC-LLE">
  <group id="1" value="3" />
  <group id="2" value="6" />
  <group id="3" value="1" />
  </UnifacLLE>
<Asog name="ASOG">
  <group id="1" value="3" />
  <group id="2" value="6" />
  <group id="3" value="1" />
  </Asog>
<GCmethod name="PPR78">
  <group id="1" value="3" />
  <group id="2" value="6" />
  <group id="3" value="1" />
  </GCmethod>
<Umr name="UMR">
  <group id="1" value="3" />
  <group id="2" value="6" />
  <group id="3" value="1" />
  </Umr>
<ModifiedUnifac name="Modified UNIFAC">
  <group id="1" value="3" />
  <group id="2" value="6" />
  <group id="3" value="1" />
  </ModifiedUnifac>
<CAS name="CAS number" value="17301-94-9" />
<Smiles name="SMILES" value="CCCC(C)CCCCC" />
</compound>

