<compound>
<LibraryIndex name="Index" value="30" />
<CompoundID name="Name" value="4-methylheptane" />
<StructureFormula name="Structure" value="CH3(CH2)2CH(CH3)(CH2)2CH3" />
<Family name="Family" value="2" />
<CriticalTemperature name="Critical temperature" units="K" value="561.7" />
<CriticalPressure name="Critical pressure" units="Pa" value="2540000" />
<CriticalVolume name="Critical volume" units="m3/kmol" value="0.476" />
<CriticalCompressibility name="Critical compressibility factor" units="_" value="0.259" />
<NormalBoilingPointTemperature name="Normal boiling point" units="K" value="390.86" />
<NormalMeltingPointTemperature name="Melting point" units="K" value="152.19" />
<TriplePointTemperature name="Triple point temperature" units="K" value="152.2" />
<TriplePointPressure name="Triple point pressure" units="Pa" value="0.0000457034" />
<MolecularWeight name="Molecular weight" units="kg/kmol" value="114.2285" />
<LiquidVolumeAtNormalBoilingPoint name="Liquid molar volume at normal boiling point" units="m3/kmol" value="0.16306" />
<AcentricityFactor name="Acentric factor" units="_" value="0.371" />
<RadiusOfGyration name="Radius of gyration" units="m" value="4.52E-10" />
<SolubilityParameter name="Solubility parameter" units="J0.5/m1.5" value="15140" />
<DipoleMoment name="Dipole moment" units="Coulomb.m" value="0" />
<VanDerWaalsVolume name="Van der Waals volume" units="m3/kmol" value="0.0887" />
<VanDerWaalsArea name="Van der Waals area" units="m2/kmol" value="1.233E+09" />
<HeatOfFormation name="IG heat of formation" units="J/kmol" value="-2.1196E+08" />
<GibbsEnergyOfFormation name="IG Gibbs energy of formation" units="J/kmol" value="1.571E+07" />
<AbsEntropy name="IG absolute entropy" units="J/kmol/K" value="457390" />
<HeatOfFusionAtMeltingPoint name="Heat of fusion at melting point" units="J/kmol" value="1.08E+07" />
<MatthiasCopemanC1 name="Mathias-Copeman C1" units="_" value="1.0902" />
<HeatOfCombustion name="Standard net heat of combustion LHV" units="J/kmol" value="-5.07282E+09" />
<SolidDensity name="Solid density" units="kmol/m3">
  <eqno value="2" />
  <A value="8.8808" />
  <B value="-0.0059952" />
  <C value="0" />
  <D value="0" />
  <E value="0" />
  <Tmin units="K" value="60.88" />
  <Tmax units="K" value="152.2" />
  </SolidDensity>
<LiquidDensity name="Liquid density" units="kmol/m3">
  <eqno value="105" />
  <A value="0.41247" />
  <B value="0.23007" />
  <C value="561.76" />
  <D value="0.23229" />
  <Tmin units="K" value="152.15" />
  <Tmax units="K" value="561.75" />
  </LiquidDensity>
<VaporPressure name="Vapour pressure" units="Pa">
  <eqno value="101" />
  <A value="97.33843" />
  <B value="-7742.706" />
  <C value="-11.25952" />
  <D value="7.843366E-06" />
  <E value="2" />
  <Tmin units="K" value="152.2" />
  <Tmax units="K" value="561.74" />
  </VaporPressure>
<HeatOfVaporization name="Heat of vaporization" units="J/kmol">
  <eqno value="106" />
  <A value="6.797167E+07" />
  <B value="1.151616" />
  <C value="-0.835173" />
  <D value="-0.171743" />
  <E value="0.314726" />
  <Tmin units="K" value="152.2" />
  <Tmax units="K" value="540.15" />
  </HeatOfVaporization>
<SolidHeatCapacityCp name="Solid heat capacity" units="J/kmol/K">
  <eqno value="1" />
  <A value="223200" />
  <Tmin units="K" value="0" />
  <Tmax units="K" value="561.7" />
  </SolidHeatCapacityCp>
<LiquidHeatCapacityCp name="Liquid heat capacity" units="J/kmol/K">
  <eqno value="16" />
  <A value="123600" />
  <B value="-18.717" />
  <C value="11.067" />
  <D value="0.0020327" />
  <E value="0.0000016218" />
  <Tmin units="K" value="152" />
  <Tmax units="K" value="530" />
  </LiquidHeatCapacityCp>
<IdealGasHeatCapacityCp name="Ideal gas heat capacity" units="J/kmol/K">
  <eqno value="16" />
  <A value="100250" />
  <B value="-569.74" />
  <C value="13.266" />
  <D value="0.000060406" />
  <E value="-2.5661E-08" />
  <Tmin units="K" value="150" />
  <Tmax units="K" value="1500" />
  </IdealGasHeatCapacityCp>
<SecondVirialCoefficient name="Second virial coefficient" units="m3/kmol">
  <eqno value="104" />
  <A value="0.26872" />
  <B value="-336.78" />
  <C value="-55.297" />
  <D value="-13650" />
  <E value="26132" />
  <Tmin units="K" value="280.85" />
  <Tmax units="K" value="1792.87" />
  </SecondVirialCoefficient>
<LiquidViscosity name="Liquid viscosity" units="Pa.s">
  <eqno value="101" />
  <A value="-11.11" />
  <B value="1066.3" />
  <C value="-0.039384" />
  <D value="1.7455E-07" />
  <E value="2" />
  <Tmin units="K" value="152.2" />
  <Tmax units="K" value="390.86" />
  </LiquidViscosity>
<VaporViscosity name="Vapour viscosity" units="Pa.s">
  <eqno value="102" />
  <A value="0.0000043616" />
  <B value="0.27023" />
  <C value="695.06" />
  <D value="-2959.1" />
  <Tmin units="K" value="152.2" />
  <Tmax units="K" value="1000" />
  </VaporViscosity>
<LiquidThermalConductivity name="Liquid thermal conductivity" units="W/m/K">
  <eqno value="16" />
  <A value="-0.096483" />
  <B value="12.321" />
  <C value="-1.3603" />
  <D value="-0.00031289" />
  <E value="-0.0000012186" />
  <Tmin units="K" value="152.15" />
  <Tmax units="K" value="503.15" />
  </LiquidThermalConductivity>
<VaporThermalConductivity name="Vapour thermal conductivity" units="W/m/K">
  <eqno value="102" />
  <A value="0.000040274" />
  <B value="1.1204" />
  <C value="-164.18" />
  <D value="166050" />
  <Tmin units="K" value="152.2" />
  <Tmax units="K" value="1000" />
  </VaporThermalConductivity>
<SurfaceTension name="Surface tension" units="N/m">
  <eqno value="16" />
  <A value="-0.015124" />
  <B value="11.813" />
  <C value="-2.8959" />
  <D value="-0.000703" />
  <E value="-0.0000030068" />
  <Tmin units="K" value="152.2" />
  <Tmax units="K" value="540.15" />
  </SurfaceTension>
<RPPHeatCapacityCp name="Ideal gas heat capacity (RPP)" units="J/kmol/K">
  <eqno value="100" />
  <A value="18142" />
  <B value="522.38" />
  <C value="0.36742" />
  <D value="-0.00083319" />
  <E value="3.6234E-07" />
  <Tmin units="K" value="200" />
  <Tmax units="K" value="1000" />
  </RPPHeatCapacityCp>
<AntoineVaporPressure name="Antoine" units="Pa">
  <eqno value="10" />
  <A value="20.935" />
  <B value="3153.8" />
  <C value="-55.685" />
  <Tmin units="K" value="341.5" />
  <Tmax units="K" value="503.15" />
  </AntoineVaporPressure>
<LiquidViscosityRPS name="Liquid viscosity (RPS)" units="Pa.s">
  <eqno value="12" />
  <A value="-2.4371" />
  <B value="-0.017141" />
  <Tmin units="K" value="152.2" />
  <Tmax units="K" value="390.86" />
  </LiquidViscosityRPS>
<COSTALDVolume name="COSTLD characteristic volume (V*)" units="m3/kmol" value="0.486849" />
<DiameterLJ name="Lennard Jones diameter" units="m" value="7.370341E-10" />
<EnergyLJ name="Lennard Jones energy" units="K" value="283.3328" />
<RacketParameter name="Rackett parameter" units="_" value="0.259" />
<FullerVolume name="Fuller et al. diffusion volume" units="_" value="168.78" />
<MatthiasCopemanC2 name="Mathias-Copeman C2" units="_" value="-0.46166" />
<Parachor name="Parachor" units="kg0.25.m3/s0.5/kmol" value="0.0611736" />
<SpecificGravity name="Specific gravity" units="_" value="0.710283" />
<Charge name="Charge" units="_" value="0" />
<CostaldAcentricFactor name="SRK acentric factor" units="_" value="0.371" />
<WilsonVolume name="Wilson volume" units="m3/kmol" value="0.16306" />
<UniquacR name="UNIQUAC r" units="_" value="5.8478" />
<UniquacQ name="UNIQUAC q" units="_" value="4.932" />
<ApiSrkS2 name="API-SRK s2" units="_" value="-0.00287" />
<MatthiasCopemanC3 name="Mathias-Copeman C3" units="_" value="0.95432" />
<ChaoSeaderAcentricFactor name="Chao-Seader acentric factor" units="_" value="0.371" />
<ChaoSeaderSolubilityParameter name="Chao-Seader solubility parameter" units="J0.5/m1.5" value="15140" />
<ChaoSeaderLiquidVolume name="Chao-Seader liquid volume" units="m3/kmol" value="0.16306" />
<UnifacVLE name="UNIFAC">
  <group id="1" value="3" />
  <group id="2" value="4" />
  <group id="3" value="1" />
  </UnifacVLE>
<UnifacLLE name="UNIFAC-LLE">
  <group id="1" value="3" />
  <group id="2" value="4" />
  <group id="3" value="1" />
  </UnifacLLE>
<Asog name="ASOG">
  <group id="1" value="3" />
  <group id="2" value="4" />
  <group id="3" value="1" />
  </Asog>
<GCmethod name="PPR78">
  <group id="1" value="3" />
  <group id="2" value="4" />
  <group id="3" value="1" />
  </GCmethod>
<Umr name="UMR">
  <group id="1" value="3" />
  <group id="2" value="4" />
  <group id="3" value="1" />
  </Umr>
<ModifiedUnifac name="Modified UNIFAC">
  <group id="1" value="3" />
  <group id="2" value="4" />
  <group id="3" value="1" />
  </ModifiedUnifac>
<CAS name="CAS number" value="589-53-7" />
<Smiles name="SMILES" value="CCCC(C)CCC" />
</compound>

