<compound>
<LibraryIndex name="Index" value="227" />
<CompoundID name="Name" value="4-methyl-cis-2-pentene" />
<StructureFormula name="Structure" value="CH3CHCHCH(CH3)2" />
<Family name="Family" value="11" />
<CriticalTemperature name="Critical temperature" units="K" value="499" />
<CriticalPressure name="Critical pressure" units="Pa" value="3220000" />
<CriticalVolume name="Critical volume" units="m3/kmol" value="0.346" />
<CriticalCompressibility name="Critical compressibility factor" units="_" value="0.269" />
<NormalBoilingPointTemperature name="Normal boiling point" units="K" value="329.53" />
<NormalMeltingPointTemperature name="Melting point" units="K" value="138.72" />
<TriplePointTemperature name="Triple point temperature" units="K" value="138.3" />
<TriplePointPressure name="Triple point pressure" units="Pa" value="0.00215772" />
<MolecularWeight name="Molecular weight" units="kg/kmol" value="84.15948" />
<LiquidVolumeAtNormalBoilingPoint name="Liquid molar volume at normal boiling point" units="m3/kmol" value="0.126648" />
<AcentricityFactor name="Acentric factor" units="_" value="0.244178" />
<RadiusOfGyration name="Radius of gyration" units="m" value="3.621E-10" />
<SolubilityParameter name="Solubility parameter" units="J0.5/m1.5" value="14610" />
<DipoleMoment name="Dipole moment" units="Coulomb.m" value="7.18E-31" />
<VanDerWaalsVolume name="Van der Waals volume" units="m3/kmol" value="0.06473" />
<VanDerWaalsArea name="Van der Waals area" units="m2/kmol" value="9.09E+08" />
<HeatOfFormation name="IG heat of formation" units="J/kmol" value="-5.03335E+07" />
<GibbsEnergyOfFormation name="IG Gibbs energy of formation" units="J/kmol" value="7.69856E+07" />
<AbsEntropy name="IG absolute entropy" units="J/kmol/K" value="373338" />
<HeatOfFusionAtMeltingPoint name="Heat of fusion at melting point" units="J/kmol" value="7363840" />
<HeatOfCombustion name="Standard net heat of combustion LHV" units="J/kmol" value="-3.72502E+09" />
<SolidDensity name="Solid density" units="kmol/m3">
  <eqno value="2" />
  <A value="12.041" />
  <B value="-0.0096786" />
  <C value="0" />
  <D value="0" />
  <E value="0" />
  <Tmin units="K" value="55.32" />
  <Tmax units="K" value="138.3" />
  </SolidDensity>
<LiquidDensity name="Liquid density" units="kmol/m3">
  <eqno value="105" />
  <A value="0.77793" />
  <B value="0.27017" />
  <C value="499" />
  <D value="0.2861" />
  <Tmin units="K" value="138.3" />
  <Tmax units="K" value="480.02" />
  </LiquidDensity>
<VaporPressure name="Vapour pressure" units="Pa">
  <eqno value="101" />
  <A value="83.573" />
  <B value="-5993.9" />
  <C value="-9.4501" />
  <D value="0.0000085686" />
  <E value="2" />
  <Tmin units="K" value="138.3" />
  <Tmax units="K" value="499" />
  </VaporPressure>
<HeatOfVaporization name="Heat of vaporization" units="J/kmol">
  <eqno value="106" />
  <A value="5.4227E+07" />
  <B value="1.5628" />
  <C value="-2.6171" />
  <D value="2.4298" />
  <E value="-0.92758" />
  <Tmin units="K" value="138.3" />
  <Tmax units="K" value="480.02" />
  </HeatOfVaporization>
<SolidHeatCapacityCp name="Solid heat capacity" units="J/kmol/K">
  <eqno value="1" />
  <A value="156060" />
  <Tmin units="K" value="0" />
  <Tmax units="K" value="499" />
  </SolidHeatCapacityCp>
<LiquidHeatCapacityCp name="Liquid heat capacity" units="J/kmol/K">
  <eqno value="16" />
  <A value="-59803" />
  <B value="-16.203" />
  <C value="11.773" />
  <D value="0.0034333" />
  <E value="-0.0000037581" />
  <Tmin units="K" value="138.3" />
  <Tmax units="K" value="329.53" />
  </LiquidHeatCapacityCp>
<IdealGasHeatCapacityCp name="Ideal gas heat capacity" units="J/kmol/K">
  <eqno value="16" />
  <A value="101130" />
  <B value="-861.95" />
  <C value="13.463" />
  <D value="-0.00060529" />
  <E value="2.0212E-07" />
  <Tmin units="K" value="200" />
  <Tmax units="K" value="1500" />
  </IdealGasHeatCapacityCp>
<SecondVirialCoefficient name="Second virial coefficient" units="m3/kmol">
  <eqno value="104" />
  <A value="0.19352" />
  <B value="-193.4" />
  <C value="-26.471" />
  <D value="-1593.9" />
  <E value="1901.2" />
  <Tmin units="K" value="249.5" />
  <Tmax units="K" value="2000" />
  </SecondVirialCoefficient>
<LiquidViscosity name="Liquid viscosity" units="Pa.s">
  <eqno value="101" />
  <A value="-11.752" />
  <B value="820.42" />
  <C value="0.14056" />
  <D value="-7.3435E-07" />
  <E value="2" />
  <Tmin units="K" value="138.3" />
  <Tmax units="K" value="405" />
  </LiquidViscosity>
<VaporViscosity name="Vapour viscosity" units="Pa.s">
  <eqno value="102" />
  <A value="6.3021E-07" />
  <B value="0.52941" />
  <C value="268.94" />
  <D value="16.597" />
  <Tmin units="K" value="329.53" />
  <Tmax units="K" value="1000" />
  </VaporViscosity>
<LiquidThermalConductivity name="Liquid thermal conductivity" units="W/m/K">
  <eqno value="16" />
  <A value="-0.050868" />
  <B value="4.0553" />
  <C value="-1.554" />
  <D value="-0.00045968" />
  <E value="-0.000001981" />
  <Tmin units="K" value="138.3" />
  <Tmax units="K" value="329.53" />
  </LiquidThermalConductivity>
<VaporThermalConductivity name="Vapour thermal conductivity" units="W/m/K">
  <eqno value="102" />
  <A value="0.000052516" />
  <B value="1.0978" />
  <C value="-60.883" />
  <D value="128130" />
  <Tmin units="K" value="138.3" />
  <Tmax units="K" value="1000" />
  </VaporThermalConductivity>
<SurfaceTension name="Surface tension" units="N/m">
  <eqno value="16" />
  <A value="-0.011598" />
  <B value="20.102" />
  <C value="-3.0908" />
  <D value="-0.00038666" />
  <E value="-0.0000050432" />
  <Tmin units="K" value="138.3" />
  <Tmax units="K" value="480.02" />
  </SurfaceTension>
<RPPHeatCapacityCp name="Ideal gas heat capacity (RPP)" units="J/kmol/K">
  <eqno value="4" />
  <A value="16890" />
  <B value="454.86" />
  <C value="-0.20446" />
  <D value="0.000032855" />
  <Tmin units="K" value="200" />
  <Tmax units="K" value="1500" />
  </RPPHeatCapacityCp>
<AntoineVaporPressure name="Antoine" units="Pa">
  <eqno value="10" />
  <A value="20.651" />
  <B value="2585.2" />
  <C value="-46.215" />
  <Tmin units="K" value="299.87" />
  <Tmax units="K" value="442.05" />
  </AntoineVaporPressure>
<LiquidViscosityRPS name="Liquid viscosity (RPS)" units="Pa.s">
  <eqno value="12" />
  <A value="-3.4146" />
  <B value="-0.016461" />
  <Tmin units="K" value="138.3" />
  <Tmax units="K" value="329.53" />
  </LiquidViscosityRPS>
<COSTALDVolume name="COSTLD characteristic volume (V*)" units="m3/kmol" value="0.347048" />
<DiameterLJ name="Lennard Jones diameter" units="m" value="6.33239E-10" />
<EnergyLJ name="Lennard Jones energy" units="K" value="288.4841" />
<RacketParameter name="Rackett parameter" units="_" value="0.269" />
<FullerVolume name="Fuller et al. diffusion volume" units="_" value="123.12" />
<Parachor name="Parachor" units="kg0.25.m3/s0.5/kmol" value="0.0450895" />
<SpecificGravity name="Specific gravity" units="_" value="0.674097" />
<Charge name="Charge" units="_" value="0" />
<CostaldAcentricFactor name="SRK acentric factor" units="_" value="0.244178" />
<WilsonVolume name="Wilson volume" units="m3/kmol" value="0.126648" />
<UniquacR name="UNIQUAC r" units="_" value="4.2669" />
<UniquacQ name="UNIQUAC q" units="_" value="3.639" />
<ApiSrkS2 name="API-SRK s2" units="_" value="0.001675" />
<ChaoSeaderAcentricFactor name="Chao-Seader acentric factor" units="_" value="0.244178" />
<ChaoSeaderSolubilityParameter name="Chao-Seader solubility parameter" units="J0.5/m1.5" value="14610" />
<ChaoSeaderLiquidVolume name="Chao-Seader liquid volume" units="m3/kmol" value="0.126648" />
<UnifacVLE name="UNIFAC">
  <group id="1" value="3" />
  <group id="3" value="1" />
  <group id="6" value="1" />
  </UnifacVLE>
<UnifacLLE name="UNIFAC-LLE">
  <group id="1" value="3" />
  <group id="3" value="1" />
  <group id="6" value="1" />
  </UnifacLLE>
<Asog name="ASOG">
  <group id="1" value="3" />
  <group id="3" value="1" />
  <group id="6" value="1" />
  </Asog>
<GCmethod name="PPR78">
  <group id="1" value="3" />
  <group id="2" value="1" />
  <group id="18" value="1" />
  <group id="19" value="1" />
  </GCmethod>
<Umr name="UMR">
  <group id="1" value="3" />
  <group id="3" value="1" />
  <group id="6" value="1" />
  </Umr>
<ModifiedUnifac name="Modified UNIFAC">
  <group id="1" value="3" />
  <group id="3" value="1" />
  <group id="6" value="1" />
  </ModifiedUnifac>
<CAS name="CAS number" value="691-38-3" />
<Smiles name="SMILES" value="C/C=C\C(C)C" />
</compound>

