<compound>
<LibraryIndex name="Index" value="88" />
<CompoundID name="Name" value="5-methylnonane" />
<StructureFormula name="Structure" value="CH3(CH2)3CH(CH3)(CH2)3CH3" />
<Family name="Family" value="2" />
<CriticalTemperature name="Critical temperature" units="K" value="609.6" />
<CriticalPressure name="Critical pressure" units="Pa" value="2140000" />
<CriticalVolume name="Critical volume" units="m3/kmol" value="0.5904" />
<CriticalCompressibility name="Critical compressibility factor" units="_" value="0.248" />
<NormalBoilingPointTemperature name="Normal boiling point" units="K" value="438.25" />
<NormalMeltingPointTemperature name="Melting point" units="K" value="186" />
<TriplePointTemperature name="Triple point temperature" units="K" value="185.45" />
<TriplePointPressure name="Triple point pressure" units="Pa" value="0.000438465" />
<MolecularWeight name="Molecular weight" units="kg/kmol" value="142.2817" />
<LiquidVolumeAtNormalBoilingPoint name="Liquid molar volume at normal boiling point" units="m3/kmol" value="0.195298" />
<AcentricityFactor name="Acentric factor" units="_" value="0.456177" />
<RadiusOfGyration name="Radius of gyration" units="m" value="5.318E-10" />
<SolubilityParameter name="Solubility parameter" units="J0.5/m1.5" value="15440" />
<DipoleMoment name="Dipole moment" units="Coulomb.m" value="0" />
<VanDerWaalsVolume name="Van der Waals volume" units="m3/kmol" value="0.10917" />
<VanDerWaalsArea name="Van der Waals area" units="m2/kmol" value="1.503E+09" />
<HeatOfFormation name="IG heat of formation" units="J/kmol" value="-2.5472E+08" />
<GibbsEnergyOfFormation name="IG Gibbs energy of formation" units="J/kmol" value="3.06E+07" />
<AbsEntropy name="IG absolute entropy" units="J/kmol/K" value="536500" />
<HeatOfFusionAtMeltingPoint name="Heat of fusion at melting point" units="J/kmol" value="1.66E+07" />
<HeatOfCombustion name="Standard net heat of combustion LHV" units="J/kmol" value="-6.291E+09" />
<SolidDensity name="Solid density" units="kmol/m3">
  <eqno value="2" />
  <A value="7.2082" />
  <B value="-0.0043126" />
  <C value="0" />
  <D value="0" />
  <E value="0" />
  <Tmin units="K" value="74.18" />
  <Tmax units="K" value="185.45" />
  </SolidDensity>
<LiquidDensity name="Liquid density" units="kmol/m3">
  <eqno value="105" />
  <A value="0.41463" />
  <B value="0.2529" />
  <C value="610.01" />
  <D value="0.28051" />
  <Tmin units="K" value="185.45" />
  <Tmax units="K" value="610" />
  </LiquidDensity>
<VaporPressure name="Vapour pressure" units="Pa">
  <eqno value="101" />
  <A value="215.6392" />
  <B value="-13712.31" />
  <C value="-29.15861" />
  <D value="0.0000236309" />
  <E value="2" />
  <Tmin units="K" value="185.45" />
  <Tmax units="K" value="610" />
  </VaporPressure>
<HeatOfVaporization name="Heat of vaporization" units="J/kmol">
  <eqno value="106" />
  <A value="6.5588E+07" />
  <B value="0.029762" />
  <C value="1.6061" />
  <D value="-2.0417" />
  <E value="0.80324" />
  <Tmin units="K" value="185.45" />
  <Tmax units="K" value="587.66" />
  </HeatOfVaporization>
<SolidHeatCapacityCp name="Solid heat capacity" units="J/kmol/K">
  <eqno value="100" />
  <A value="759980" />
  <B value="-25254" />
  <C value="344.7" />
  <D value="-1.9725" />
  <E value="0.0041285" />
  <Tmin units="K" value="80" />
  <Tmax units="K" value="180" />
  </SolidHeatCapacityCp>
<LiquidHeatCapacityCp name="Liquid heat capacity" units="J/kmol/K">
  <eqno value="16" />
  <A value="230160" />
  <B value="-61.977" />
  <C value="9.1603" />
  <D value="0.0096645" />
  <E value="-0.0000061376" />
  <Tmin units="K" value="185.45" />
  <Tmax units="K" value="550" />
  </LiquidHeatCapacityCp>
<IdealGasHeatCapacityCp name="Ideal gas heat capacity" units="J/kmol/K">
  <eqno value="16" />
  <A value="131700" />
  <B value="-594.98" />
  <C value="13.529" />
  <D value="-0.000014234" />
  <E value="-5.0987E-09" />
  <Tmin units="K" value="150" />
  <Tmax units="K" value="1500" />
  </IdealGasHeatCapacityCp>
<SecondVirialCoefficient name="Second virial coefficient" units="m3/kmol">
  <eqno value="104" />
  <A value="0.34066" />
  <B value="-433.78" />
  <C value="-97.746" />
  <D value="-34416" />
  <E value="59442" />
  <Tmin units="K" value="305" />
  <Tmax units="K" value="1500" />
  </SecondVirialCoefficient>
<LiquidViscosity name="Liquid viscosity" units="Pa.s">
  <eqno value="101" />
  <A value="-13.838" />
  <B value="1303.8" />
  <C value="0.41828" />
  <D value="-8.7942E-07" />
  <E value="2" />
  <Tmin units="K" value="185.45" />
  <Tmax units="K" value="491" />
  </LiquidViscosity>
<VaporViscosity name="Vapour viscosity" units="Pa.s">
  <eqno value="102" />
  <A value="5.7631E-07" />
  <B value="0.50736" />
  <C value="283.05" />
  <D value="-1279.5" />
  <Tmin units="K" value="185.45" />
  <Tmax units="K" value="1000" />
  </VaporViscosity>
<LiquidThermalConductivity name="Liquid thermal conductivity" units="W/m/K">
  <eqno value="16" />
  <A value="-0.183" />
  <B value="10.49" />
  <C value="-1.0698" />
  <D value="-0.00021616" />
  <E value="-6.8913E-07" />
  <Tmin units="K" value="185.45" />
  <Tmax units="K" value="488" />
  </LiquidThermalConductivity>
<VaporThermalConductivity name="Vapour thermal conductivity" units="W/m/K">
  <eqno value="102" />
  <A value="0.00003614" />
  <B value="1.1239" />
  <C value="-159.13" />
  <D value="172680" />
  <Tmin units="K" value="185.45" />
  <Tmax units="K" value="1000" />
  </VaporThermalConductivity>
<SurfaceTension name="Surface tension" units="N/m">
  <eqno value="16" />
  <A value="-0.015552" />
  <B value="22.28" />
  <C value="-2.8961" />
  <D value="-0.00075059" />
  <E value="-0.0000023626" />
  <Tmin units="K" value="185.45" />
  <Tmax units="K" value="587.66" />
  </SurfaceTension>
<RPPHeatCapacityCp name="Ideal gas heat capacity (RPP)" units="J/kmol/K">
  <eqno value="4" />
  <A value="4321" />
  <B value="909.02" />
  <C value="-0.45451" />
  <D value="0.000080712" />
  <Tmin units="K" value="150" />
  <Tmax units="K" value="1500" />
  </RPPHeatCapacityCp>
<AntoineVaporPressure name="Antoine" units="Pa">
  <eqno value="10" />
  <A value="20.621" />
  <B value="3256.6" />
  <C value="-80.185" />
  <Tmin units="K" value="367.15" />
  <Tmax units="K" value="542.97" />
  </AntoineVaporPressure>
<LiquidViscosityRPS name="Liquid viscosity (RPS)" units="Pa.s">
  <eqno value="12" />
  <A value="-2.6594" />
  <B value="-0.014236" />
  <Tmin units="K" value="185.45" />
  <Tmax units="K" value="438.3" />
  </LiquidViscosityRPS>
<COSTALDVolume name="COSTLD characteristic volume (V*)" units="m3/kmol" value="0.616046" />
<DiameterLJ name="Lennard Jones diameter" units="m" value="8.342286E-10" />
<EnergyLJ name="Lennard Jones energy" units="K" value="263.0172" />
<RacketParameter name="Rackett parameter" units="_" value="0.248" />
<FullerVolume name="Fuller et al. diffusion volume" units="_" value="209.82" />
<Parachor name="Parachor" units="kg0.25.m3/s0.5/kmol" value="0.0758946" />
<SpecificGravity name="Specific gravity" units="_" value="0.736351" />
<Charge name="Charge" units="_" value="0" />
<CostaldAcentricFactor name="SRK acentric factor" units="_" value="0.456177" />
<WilsonVolume name="Wilson volume" units="m3/kmol" value="0.195298" />
<UniquacR name="UNIQUAC r" units="_" value="7.196599" />
<UniquacQ name="UNIQUAC q" units="_" value="6.012" />
<ChaoSeaderAcentricFactor name="Chao-Seader acentric factor" units="_" value="0.456177" />
<ChaoSeaderSolubilityParameter name="Chao-Seader solubility parameter" units="J0.5/m1.5" value="15440" />
<ChaoSeaderLiquidVolume name="Chao-Seader liquid volume" units="m3/kmol" value="0.195298" />
<UnifacVLE name="UNIFAC">
  <group id="1" value="3" />
  <group id="2" value="6" />
  <group id="3" value="1" />
  </UnifacVLE>
<UnifacLLE name="UNIFAC-LLE">
  <group id="1" value="3" />
  <group id="2" value="6" />
  <group id="3" value="1" />
  </UnifacLLE>
<Asog name="ASOG">
  <group id="1" value="3" />
  <group id="2" value="6" />
  <group id="3" value="1" />
  </Asog>
<GCmethod name="PPR78">
  <group id="1" value="3" />
  <group id="2" value="6" />
  <group id="3" value="1" />
  </GCmethod>
<Umr name="UMR">
  <group id="1" value="3" />
  <group id="2" value="6" />
  <group id="3" value="1" />
  </Umr>
<ModifiedUnifac name="Modified UNIFAC">
  <group id="1" value="3" />
  <group id="2" value="6" />
  <group id="3" value="1" />
  </ModifiedUnifac>
<CAS name="CAS number" value="15869-85-9" />
<Smiles name="SMILES" value="CCCCC(C)CCCC" />
</compound>

