<compound>
<LibraryIndex name="Index" value="1064" />
<CompoundID name="Name" value="5-methyl-2-hexanone" />
<StructureFormula name="Structure" value="CH3CO(CH2)2CH(CH3)2" />
<Family name="Family" value="26" />
<CriticalTemperature name="Critical temperature" units="K" value="601" />
<CriticalPressure name="Critical pressure" units="Pa" value="2970000" />
<CriticalVolume name="Critical volume" units="m3/kmol" value="0.421" />
<CriticalCompressibility name="Critical compressibility factor" units="_" value="0.25" />
<NormalBoilingPointTemperature name="Normal boiling point" units="K" value="417.95" />
<NormalMeltingPointTemperature name="Melting point" units="K" value="199.25" />
<TriplePointTemperature name="Triple point temperature" units="K" value="199.25" />
<TriplePointPressure name="Triple point pressure" units="Pa" value="0.0241997" />
<MolecularWeight name="Molecular weight" units="kg/kmol" value="114.1855" />
<LiquidVolumeAtNormalBoilingPoint name="Liquid molar volume at normal boiling point" units="m3/kmol" value="0.141298" />
<AcentricityFactor name="Acentric factor" units="_" value="0.434398" />
<RadiusOfGyration name="Radius of gyration" units="m" value="4.329E-10" />
<SolubilityParameter name="Solubility parameter" units="J0.5/m1.5" value="17740" />
<VanDerWaalsVolume name="Van der Waals volume" units="m3/kmol" value="0.07995" />
<VanDerWaalsArea name="Van der Waals area" units="m2/kmol" value="1.123E+09" />
<HeatOfFormation name="IG heat of formation" units="J/kmol" value="-3.04E+08" />
<GibbsEnergyOfFormation name="IG Gibbs energy of formation" units="J/kmol" value="-1.22E+08" />
<AbsEntropy name="IG absolute entropy" units="J/kmol/K" value="446000" />
<HeatOfFusionAtMeltingPoint name="Heat of fusion at melting point" units="J/kmol" value="0" />
<HeatOfCombustion name="Standard net heat of combustion LHV" units="J/kmol" value="-4.1E+09" />
<SolidDensity name="Solid density" units="kmol/m3">
  <eqno value="2" />
  <A value="9.8634" />
  <B value="-0.0054919" />
  <C value="0" />
  <D value="0" />
  <E value="0" />
  <Tmin units="K" value="79.7" />
  <Tmax units="K" value="199.25" />
  </SolidDensity>
<LiquidDensity name="Liquid density" units="kmol/m3">
  <eqno value="105" />
  <A value="0.59436" />
  <B value="0.2568" />
  <C value="601" />
  <D value="0.28571" />
  <Tmin units="K" value="199.25" />
  <Tmax units="K" value="601" />
  </LiquidDensity>
<VaporPressure name="Vapour pressure" units="Pa">
  <eqno value="101" />
  <A value="114.12" />
  <B value="-9180" />
  <C value="-13.613" />
  <D value="0.0000087656" />
  <E value="2" />
  <Tmin units="K" value="199.25" />
  <Tmax units="K" value="601" />
  </VaporPressure>
<HeatOfVaporization name="Heat of vaporization" units="J/kmol">
  <eqno value="106" />
  <A value="8.005371E+07" />
  <B value="1.17745" />
  <C value="-0.708374" />
  <D value="-0.221424" />
  <E value="0.184955" />
  <Tmin units="K" value="199.25" />
  <Tmax units="K" value="601" />
  </HeatOfVaporization>
<SolidHeatCapacityCp name="Solid heat capacity" units="J/kmol/K">
  <eqno value="1" />
  <A value="195490" />
  <Tmin units="K" value="0" />
  <Tmax units="K" value="601" />
  </SolidHeatCapacityCp>
<LiquidHeatCapacityCp name="Liquid heat capacity" units="J/kmol/K">
  <eqno value="16" />
  <A value="125240" />
  <B value="163.14" />
  <C value="9.1111" />
  <D value="0.0074883" />
  <E value="-0.0000035144" />
  <Tmin units="K" value="199.25" />
  <Tmax units="K" value="417.95" />
  </LiquidHeatCapacityCp>
<IdealGasHeatCapacityCp name="Ideal gas heat capacity" units="J/kmol/K">
  <eqno value="16" />
  <A value="96832" />
  <B value="-530.6" />
  <C value="12.878" />
  <D value="0.00028483" />
  <E value="-1.1552E-07" />
  <Tmin units="K" value="273" />
  <Tmax units="K" value="1200" />
  </IdealGasHeatCapacityCp>
<SecondVirialCoefficient name="Second virial coefficient" units="m3/kmol">
  <eqno value="104" />
  <A value="0.23033" />
  <B value="-274.58" />
  <C value="-81.341" />
  <D value="-10255" />
  <E value="-37295" />
  <Tmin units="K" value="300.5" />
  <Tmax units="K" value="2000" />
  </SecondVirialCoefficient>
<LiquidViscosity name="Liquid viscosity" units="Pa.s">
  <eqno value="101" />
  <A value="-15.292" />
  <B value="1388.7" />
  <C value="0.61336" />
  <D value="-0.0000015372" />
  <E value="2" />
  <Tmin units="K" value="199.25" />
  <Tmax units="K" value="501" />
  </LiquidViscosity>
<VaporViscosity name="Vapour viscosity" units="Pa.s">
  <eqno value="102" />
  <A value="3.5504E-07" />
  <B value="0.6089" />
  <C value="292.03" />
  <D value="-90.104" />
  <Tmin units="K" value="417.95" />
  <Tmax units="K" value="1000" />
  </VaporViscosity>
<LiquidThermalConductivity name="Liquid thermal conductivity" units="W/m/K">
  <eqno value="16" />
  <A value="-0.18233" />
  <B value="17.124" />
  <C value="-1.0595" />
  <D value="-0.000040298" />
  <E value="-9.9547E-07" />
  <Tmin units="K" value="180.3" />
  <Tmax units="K" value="480.3" />
  </LiquidThermalConductivity>
<VaporThermalConductivity name="Vapour thermal conductivity" units="W/m/K">
  <eqno value="102" />
  <A value="1467.4" />
  <B value="1.0438" />
  <C value="1.713E+10" />
  <D value="-1.5385E+11" />
  <Tmin units="K" value="199.25" />
  <Tmax units="K" value="1000" />
  </VaporThermalConductivity>
<SurfaceTension name="Surface tension" units="N/m">
  <eqno value="16" />
  <A value="-0.010301" />
  <B value="67.628" />
  <C value="-3.3971" />
  <D value="0.0010921" />
  <E value="-0.0000054599" />
  <Tmin units="K" value="199.25" />
  <Tmax units="K" value="601" />
  </SurfaceTension>
<RPPHeatCapacityCp name="Ideal gas heat capacity (RPP)" units="J/kmol/K">
  <eqno value="4" />
  <A value="3468.2" />
  <B value="653.98" />
  <C value="-0.36734" />
  <D value="0.000079674" />
  <Tmin units="K" value="273" />
  <Tmax units="K" value="1200" />
  </RPPHeatCapacityCp>
<RelativeStaticPermittivity name="Relative static permittivity" units="_">
  <eqno value="120" />
  <A value="-12.70264" />
  <B value="-6550" />
  <C value="-39.3" />
  <Tmin units="K" value="274.15" />
  <Tmax units="K" value="444.15" />
  </RelativeStaticPermittivity>
<AntoineVaporPressure name="Antoine" units="Pa">
  <eqno value="10" />
  <A value="21.335" />
  <B value="3511.9" />
  <C value="-59.958" />
  <Tmin units="K" value="367.25" />
  <Tmax units="K" value="537.57" />
  </AntoineVaporPressure>
<LiquidViscosityRPS name="Liquid viscosity (RPS)" units="Pa.s">
  <eqno value="12" />
  <A value="-2.5869" />
  <B value="-0.015027" />
  <Tmin units="K" value="199.25" />
  <Tmax units="K" value="417.95" />
  </LiquidViscosityRPS>
<COSTALDVolume name="COSTLD characteristic volume (V*)" units="m3/kmol" value="0.434528" />
<DiameterLJ name="Lennard Jones diameter" units="m" value="7.381495E-10" />
<EnergyLJ name="Lennard Jones energy" units="K" value="266.9142" />
<RacketParameter name="Rackett parameter" units="_" value="0.25" />
<FullerVolume name="Fuller et al. diffusion volume" units="_" value="149.75" />
<Parachor name="Parachor" units="kg0.25.m3/s0.5/kmol" value="0.0563476" />
<SpecificGravity name="Specific gravity" units="_" value="0.816947" />
<Charge name="Charge" units="_" value="0" />
<CostaldAcentricFactor name="SRK acentric factor" units="_" value="0.434398" />
<WilsonVolume name="Wilson volume" units="m3/kmol" value="0.141298" />
<UniquacR name="UNIQUAC r" units="_" value="5.2703" />
<UniquacQ name="UNIQUAC q" units="_" value="4.492" />
<ChaoSeaderAcentricFactor name="Chao-Seader acentric factor" units="_" value="0.434398" />
<ChaoSeaderSolubilityParameter name="Chao-Seader solubility parameter" units="J0.5/m1.5" value="17740" />
<ChaoSeaderLiquidVolume name="Chao-Seader liquid volume" units="m3/kmol" value="0.141298" />
<UnifacVLE name="UNIFAC">
  <group id="1" value="2" />
  <group id="2" value="2" />
  <group id="3" value="1" />
  <group id="19" value="1" />
  </UnifacVLE>
<UnifacLLE name="UNIFAC-LLE">
  <group id="1" value="2" />
  <group id="2" value="2" />
  <group id="3" value="1" />
  <group id="19" value="1" />
  </UnifacLLE>
<Asog name="ASOG">
  <group id="1" value="3" />
  <group id="2" value="2" />
  <group id="3" value="1" />
  <group id="18" value="1" />
  </Asog>
<Umr name="UMR">
  <group id="1" value="2" />
  <group id="2" value="2" />
  <group id="3" value="1" />
  <group id="19" value="1" />
  </Umr>
<ModifiedUnifac name="Modified UNIFAC">
  <group id="1" value="2" />
  <group id="2" value="2" />
  <group id="3" value="1" />
  <group id="18" value="1" />
  </ModifiedUnifac>
<CAS name="CAS number" value="110-12-3" />
<Smiles name="SMILES" value="CC(=O)CCC(C)C" />
</compound>

