<compound>
<LibraryIndex name="Index" value="1772" />
<CompoundID name="Name" value="acetonitrile" />
<StructureFormula name="Structure" value="CH3CN" />
<Family name="Family" value="38" />
<CriticalTemperature name="Critical temperature" units="K" value="545.5" />
<CriticalPressure name="Critical pressure" units="Pa" value="4830000" />
<CriticalVolume name="Critical volume" units="m3/kmol" value="0.173" />
<CriticalCompressibility name="Critical compressibility factor" units="_" value="0.184" />
<NormalBoilingPointTemperature name="Normal boiling point" units="K" value="354.75" />
<NormalMeltingPointTemperature name="Melting point" units="K" value="229.32" />
<TriplePointTemperature name="Triple point temperature" units="K" value="229.32" />
<TriplePointPressure name="Triple point pressure" units="Pa" value="186.945" />
<MolecularWeight name="Molecular weight" units="kg/kmol" value="41.05192" />
<LiquidVolumeAtNormalBoilingPoint name="Liquid molar volume at normal boiling point" units="m3/kmol" value="0.0528577" />
<AcentricityFactor name="Acentric factor" units="_" value="0.337886" />
<RadiusOfGyration name="Radius of gyration" units="m" value="1.841E-10" />
<SolubilityParameter name="Solubility parameter" units="J0.5/m1.5" value="24050" />
<DipoleMoment name="Dipole moment" units="Coulomb.m" value="1.31E-29" />
<VanDerWaalsVolume name="Van der Waals volume" units="m3/kmol" value="0.02837" />
<VanDerWaalsArea name="Van der Waals area" units="m2/kmol" value="4.31E+08" />
<HeatOfFormation name="IG heat of formation" units="J/kmol" value="7.404E+07" />
<GibbsEnergyOfFormation name="IG Gibbs energy of formation" units="J/kmol" value="9.1868E+07" />
<AbsEntropy name="IG absolute entropy" units="J/kmol/K" value="243290" />
<HeatOfFusionAtMeltingPoint name="Heat of fusion at melting point" units="J/kmol" value="8167000" />
<MatthiasCopemanC1 name="Mathias-Copeman C1" units="_" value="1.10072" />
<HeatOfCombustion name="Standard net heat of combustion LHV" units="J/kmol" value="-1.19043E+09" />
<SolidDensity name="Solid density" units="kmol/m3">
  <eqno value="2" />
  <A value="26.156" />
  <B value="-0.012566" />
  <Tmin units="K" value="91.73" />
  <Tmax units="K" value="229.32" />
  </SolidDensity>
<LiquidDensity name="Liquid density" units="kmol/m3">
  <eqno value="105" />
  <A value="1.3064" />
  <B value="0.22597" />
  <C value="545.5" />
  <D value="0.28678" />
  <Tmin units="K" value="229.32" />
  <Tmax units="K" value="545.5" />
  </LiquidDensity>
<VaporPressure name="Vapour pressure" units="Pa">
  <eqno value="101" />
  <A value="63.90188" />
  <B value="-5635.018" />
  <C value="-6.338065" />
  <D value="5.801644E-06" />
  <E value="2" />
  <Tmin units="K" value="226.15" />
  <Tmax units="K" value="545.5" />
  </VaporPressure>
<HeatOfVaporization name="Heat of vaporization" units="J/kmol">
  <eqno value="106" />
  <A value="4.416703E+07" />
  <B value="0.0989791" />
  <C value="1.817987" />
  <D value="-3.443548" />
  <E value="1.854664" />
  <Tmin units="K" value="229.32" />
  <Tmax units="K" value="545.5" />
  </HeatOfVaporization>
<SolidHeatCapacityCp name="Solid heat capacity" units="J/kmol/K">
  <eqno value="100" />
  <A value="-24879" />
  <B value="1533.9" />
  <C value="-14.715" />
  <D value="0.077647" />
  <E value="-0.00014986" />
  <Tmin units="K" value="25.75" />
  <Tmax units="K" value="224.56" />
  </SolidHeatCapacityCp>
<LiquidHeatCapacityCp name="Liquid heat capacity" units="J/kmol/K">
  <eqno value="16" />
  <A value="78687" />
  <B value="635.92" />
  <C value="1.7473" />
  <D value="0.02389" />
  <E value="-0.000017421" />
  <Tmin units="K" value="229.32" />
  <Tmax units="K" value="354.75" />
  </LiquidHeatCapacityCp>
<IdealGasHeatCapacityCp name="Ideal gas heat capacity" units="J/kmol/K">
  <eqno value="16" />
  <A value="41003" />
  <B value="-679.99" />
  <C value="11.578" />
  <D value="0.00010104" />
  <E value="-4.1014E-08" />
  <Tmin units="K" value="100" />
  <Tmax units="K" value="1500" />
  </IdealGasHeatCapacityCp>
<SecondVirialCoefficient name="Second virial coefficient" units="m3/kmol">
  <eqno value="104" />
  <A value="-0.0059949" />
  <B value="-17.326" />
  <C value="-84.313" />
  <D value="48578" />
  <E value="-218790" />
  <Tmin units="K" value="301.4" />
  <Tmax units="K" value="1918" />
  </SecondVirialCoefficient>
<LiquidViscosity name="Liquid viscosity" units="Pa.s">
  <eqno value="101" />
  <A value="-31.531" />
  <B value="1522.1" />
  <C value="3.3306" />
  <D value="-0.0000059061" />
  <E value="2" />
  <Tmin units="K" value="229.32" />
  <Tmax units="K" value="436.4" />
  </LiquidViscosity>
<VaporViscosity name="Vapour viscosity" units="Pa.s">
  <eqno value="102" />
  <A value="5.1905E-08" />
  <B value="0.88581" />
  <C value="38.325" />
  <D value="87.034" />
  <Tmin units="K" value="229.32" />
  <Tmax units="K" value="1000" />
  </VaporViscosity>
<LiquidThermalConductivity name="Liquid thermal conductivity" units="W/m/K">
  <eqno value="16" />
  <A value="0.18265" />
  <B value="8401.9" />
  <C value="-103.1" />
  <D value="0.40559" />
  <E value="-0.00056286" />
  <Tmin units="K" value="229.32" />
  <Tmax units="K" value="383.15" />
  </LiquidThermalConductivity>
<VaporThermalConductivity name="Vapour thermal conductivity" units="W/m/K">
  <eqno value="102" />
  <A value="4.7622E-08" />
  <B value="2.1156" />
  <C value="30.88" />
  <D value="-14671" />
  <Tmin units="K" value="229.32" />
  <Tmax units="K" value="994.75" />
  </VaporThermalConductivity>
<SurfaceTension name="Surface tension" units="N/m">
  <eqno value="16" />
  <A value="-0.020712" />
  <B value="60.742" />
  <C value="-3.1145" />
  <D value="0.0012183" />
  <E value="-0.0000051841" />
  <Tmin units="K" value="229.32" />
  <Tmax units="K" value="545.5" />
  </SurfaceTension>
<RPPHeatCapacityCp name="Ideal gas heat capacity (RPP)" units="J/kmol/K">
  <eqno value="4" />
  <A value="20459.76" />
  <B value="119.5411" />
  <C value="-0.0449278" />
  <D value="3.213187E-06" />
  <Tmin units="K" value="200" />
  <Tmax units="K" value="1200" />
  </RPPHeatCapacityCp>
<RelativeStaticPermittivity name="Relative static permittivity" units="_">
  <eqno value="120" />
  <A value="-12.40026" />
  <B value="-12960.1" />
  <C value="-29.78921" />
  <Tmin units="K" value="295" />
  <Tmax units="K" value="545" />
  </RelativeStaticPermittivity>
<AntoineVaporPressure name="Antoine" units="Pa">
  <eqno value="10" />
  <A value="22.165" />
  <B value="3643.3" />
  <C value="-12.319" />
  <Tmin units="K" value="329.17" />
  <Tmax units="K" value="478.94" />
  </AntoineVaporPressure>
<LiquidViscosityRPS name="Liquid viscosity (RPS)" units="Pa.s">
  <eqno value="13" />
  <A value="-2.8595" />
  <B value="-0.024217" />
  <C value="0.000023868" />
  <Tmin units="K" value="229.32" />
  <Tmax units="K" value="436.4" />
  </LiquidViscosityRPS>
<COSTALDVolume name="COSTLD characteristic volume (V*)" units="m3/kmol" value="0.15354" />
<DiameterLJ name="Lennard Jones diameter" units="m" value="7.927671E-10" />
<EnergyLJ name="Lennard Jones energy" units="K" value="80.36225" />
<RacketParameter name="Rackett parameter" units="_" value="0.201855" />
<FullerVolume name="Fuller et al. diffusion volume" units="_" value="43.27" />
<MatthiasCopemanC2 name="Mathias-Copeman C2" units="_" value="-1.05284" />
<Parachor name="Parachor" units="kg0.25.m3/s0.5/kmol" value="0.0221" />
<SpecificGravity name="Specific gravity" units="_" value="0.782" />
<Charge name="Charge" units="_" value="0" />
<CostaldAcentricFactor name="SRK acentric factor" units="_" value="0.30759" />
<WilsonVolume name="Wilson volume" units="m3/kmol" value="0.0526772" />
<UniquacR name="UNIQUAC r" units="_" value="1.87" />
<UniquacQ name="UNIQUAC q" units="_" value="1.72" />
<MatthiasCopemanC3 name="Mathias-Copeman C3" units="_" value="1.33826" />
<ChaoSeaderAcentricFactor name="Chao-Seader acentric factor" units="_" value="0.338174" />
<ChaoSeaderSolubilityParameter name="Chao-Seader solubility parameter" units="J0.5/m1.5" value="24093.5" />
<ChaoSeaderLiquidVolume name="Chao-Seader liquid volume" units="m3/kmol" value="0.0526772" />
<UnifacVLE name="UNIFAC">
  <group id="41" value="1" />
  </UnifacVLE>
<UnifacLLE name="UNIFAC-LLE">
  <group id="41" value="1" />
  </UnifacLLE>
<Asog name="ASOG">
  <group id="1" value="1" />
  <group id="28" value="1" />
  </Asog>
<GCmethod name="PPR78">
  <group id="41" value="1" />
  </GCmethod>
<Umr name="UMR">
  <group id="41" value="1" />
  </Umr>
<ModifiedUnifac name="Modified UNIFAC">
  <group id="40" value="1" />
  </ModifiedUnifac>
<CAS name="CAS number" value="75-05-8" />
<Smiles name="SMILES" value="CC#N" />
</compound>

