<compound>
<LibraryIndex name="Index" value="1252" />
<CompoundID name="Name" value="acetic acid" />
<StructureFormula name="Structure" value="CH3COOH" />
<Family name="Family" value="50" />
<CriticalTemperature name="Critical temperature" units="K" value="594.45" />
<CriticalPressure name="Critical pressure" units="Pa" value="5790000" />
<CriticalVolume name="Critical volume" units="m3/kmol" value="0.171" />
<CriticalCompressibility name="Critical compressibility factor" units="_" value="0.2" />
<NormalBoilingPointTemperature name="Normal boiling point" units="K" value="391.04" />
<NormalMeltingPointTemperature name="Melting point" units="K" value="289.81" />
<TriplePointTemperature name="Triple point temperature" units="K" value="289.81" />
<TriplePointPressure name="Triple point pressure" units="Pa" value="1280" />
<MolecularWeight name="Molecular weight" units="kg/kmol" value="60.05196" />
<LiquidVolumeAtNormalBoilingPoint name="Liquid molar volume at normal boiling point" units="m3/kmol" value="0.05753" />
<AcentricityFactor name="Acentric factor" units="_" value="0.46" />
<RadiusOfGyration name="Radius of gyration" units="m" value="2.61E-10" />
<SolubilityParameter name="Solubility parameter" units="J0.5/m1.5" value="19060" />
<DipoleMoment name="Dipole moment" units="Coulomb.m" value="5.8E-30" />
<VanDerWaalsVolume name="Van der Waals volume" units="m3/kmol" value="0.0333" />
<VanDerWaalsArea name="Van der Waals area" units="m2/kmol" value="5.18E+08" />
<HeatOfFormation name="IG heat of formation" units="J/kmol" value="-4.328E+08" />
<GibbsEnergyOfFormation name="IG Gibbs energy of formation" units="J/kmol" value="-3.745E+08" />
<AbsEntropy name="IG absolute entropy" units="J/kmol/K" value="282500" />
<HeatOfFusionAtMeltingPoint name="Heat of fusion at melting point" units="J/kmol" value="1.173E+07" />
<MatthiasCopemanC1 name="Mathias-Copeman C1" units="_" value="1.29616" />
<HeatOfCombustion name="Standard net heat of combustion LHV" units="J/kmol" value="-7.866E+08" />
<SolidDensity name="Solid density" units="kmol/m3">
  <eqno value="2" />
  <A value="23.877" />
  <B value="-0.0096568" />
  <Tmin units="K" value="115.92" />
  <Tmax units="K" value="289.81" />
  </SolidDensity>
<LiquidDensity name="Liquid density" units="kmol/m3">
  <eqno value="105" />
  <A value="1.0627" />
  <B value="0.22174" />
  <C value="594.76" />
  <D value="0.22566" />
  <Tmin units="K" value="273.15" />
  <Tmax units="K" value="594.75" />
  </LiquidDensity>
<VaporPressure name="Vapour pressure" units="Pa">
  <eqno value="101" />
  <A value="87.50607" />
  <B value="-7603.906" />
  <C value="-9.655308" />
  <D value="7.168835E-06" />
  <E value="2" />
  <Tmin units="K" value="273.15" />
  <Tmax units="K" value="594.75" />
  </VaporPressure>
<HeatOfVaporization name="Heat of vaporization" units="J/kmol">
  <eqno value="106" />
  <A value="6.6203E+07" />
  <B value="6.7121" />
  <C value="-17.45" />
  <D value="17.2" />
  <E value="-6.0038" />
  <Tmin units="K" value="289.81" />
  <Tmax units="K" value="591.95" />
  </HeatOfVaporization>
<SolidHeatCapacityCp name="Solid heat capacity" units="J/kmol/K">
  <eqno value="100" />
  <A value="-12076" />
  <B value="1070.4" />
  <C value="-5.5698" />
  <D value="0.01112" />
  <E value="-9.9868E-07" />
  <Tmin units="K" value="20" />
  <Tmax units="K" value="289.81" />
  </SolidHeatCapacityCp>
<LiquidHeatCapacityCp name="Liquid heat capacity" units="J/kmol/K">
  <eqno value="16" />
  <A value="49034" />
  <B value="1051.1" />
  <C value="0.77564" />
  <D value="0.031667" />
  <E value="-0.000028344" />
  <Tmin units="K" value="289.69" />
  <Tmax units="K" value="400" />
  </LiquidHeatCapacityCp>
<IdealGasHeatCapacityCp name="Ideal gas heat capacity" units="J/kmol/K">
  <eqno value="16" />
  <A value="40110" />
  <B value="-588.24" />
  <C value="12.017" />
  <D value="0.00016249" />
  <E value="-8.6918E-08" />
  <Tmin units="K" value="50" />
  <Tmax units="K" value="1500" />
  </IdealGasHeatCapacityCp>
<LiquidViscosity name="Liquid viscosity" units="Pa.s">
  <eqno value="101" />
  <A value="-58.528" />
  <B value="2990.9" />
  <C value="7.4911" />
  <D value="-0.000011028" />
  <E value="2" />
  <Tmin units="K" value="288.15" />
  <Tmax units="K" value="474" />
  </LiquidViscosity>
<VaporViscosity name="Vapour viscosity" units="Pa.s">
  <eqno value="102" />
  <A value="4.3395E-09" />
  <B value="1.24" />
  <C value="-175.09" />
  <D value="25013" />
  <Tmin units="K" value="289.81" />
  <Tmax units="K" value="1000" />
  </VaporViscosity>
<LiquidThermalConductivity name="Liquid thermal conductivity" units="W/m/K">
  <eqno value="16" />
  <A value="0.11159" />
  <B value="-531.13" />
  <C value="1.6359" />
  <D value="-0.009369" />
  <E value="-7.1996E-07" />
  <Tmin units="K" value="274.09" />
  <Tmax units="K" value="391.05" />
  </LiquidThermalConductivity>
<VaporThermalConductivity name="Vapour thermal conductivity" units="W/m/K">
  <eqno value="102" />
  <A value="0.34137" />
  <B value="-0.80579" />
  <C value="-824.3" />
  <D value="175840" />
  <Tmin units="K" value="289.81" />
  <Tmax units="K" value="468.55" />
  </VaporThermalConductivity>
<SurfaceTension name="Surface tension" units="N/m">
  <eqno value="16" />
  <A value="-0.025913" />
  <B value="31.086" />
  <C value="-2.8254" />
  <D value="0.000036752" />
  <E value="-0.0000025639" />
  <Tmin units="K" value="288.15" />
  <Tmax units="K" value="591.95" />
  </SurfaceTension>
<RPPHeatCapacityCp name="Ideal gas heat capacity (RPP)" units="J/kmol/K">
  <eqno value="100" />
  <A value="36376" />
  <B value="-19.93" />
  <C value="0.56181" />
  <D value="-0.00072868" />
  <E value="2.8918E-07" />
  <Tmin units="K" value="50" />
  <Tmax units="K" value="1000" />
  </RPPHeatCapacityCp>
<RelativeStaticPermittivity name="Relative static permittivity" units="_">
  <eqno value="120" />
  <A value="-5.091204" />
  <B value="-3100" />
  <C value="-18.6" />
  <Tmin units="K" value="274.15" />
  <Tmax units="K" value="444.15" />
  </RelativeStaticPermittivity>
<AntoineVaporPressure name="Antoine" units="Pa">
  <eqno value="10" />
  <A value="22.785" />
  <B value="4151.5" />
  <C value="-22.49" />
  <Tmin units="K" value="361.02" />
  <Tmax units="K" value="533.15" />
  </AntoineVaporPressure>
<LiquidViscosityRPS name="Liquid viscosity (RPS)" units="Pa.s">
  <eqno value="13" />
  <A value="0.57433" />
  <B value="-0.034964" />
  <C value="0.00003435" />
  <Tmin units="K" value="288.15" />
  <Tmax units="K" value="391.05" />
  </LiquidViscosityRPS>
<COSTALDVolume name="COSTLD characteristic volume (V*)" units="m3/kmol" value="0.17407" />
<DiameterLJ name="Lennard Jones diameter" units="m" value="7.14509E-10" />
<EnergyLJ name="Lennard Jones energy" units="K" value="118.2324" />
<FullerVolume name="Fuller et al. diffusion volume" units="_" value="53.26" />
<MatthiasCopemanC2 name="Mathias-Copeman C2" units="_" value="-1.05202" />
<Parachor name="Parachor" units="kg0.25.m3/s0.5/kmol" value="0.0235" />
<SpecificGravity name="Specific gravity" units="_" value="1.0515" />
<Charge name="Charge" units="_" value="0" />
<CostaldAcentricFactor name="SRK acentric factor" units="_" value="0.43099" />
<WilsonVolume name="Wilson volume" units="m3/kmol" value="0.0575804" />
<UniquacR name="UNIQUAC r" units="_" value="2.23" />
<UniquacQ name="UNIQUAC q" units="_" value="2.04" />
<MatthiasCopemanC3 name="Mathias-Copeman C3" units="_" value="0.92225" />
<ChaoSeaderAcentricFactor name="Chao-Seader acentric factor" units="_" value="0.4566" />
<ChaoSeaderSolubilityParameter name="Chao-Seader solubility parameter" units="J0.5/m1.5" value="18501.7" />
<ChaoSeaderLiquidVolume name="Chao-Seader liquid volume" units="m3/kmol" value="0.0575804" />
<UnifacVLE name="UNIFAC">
  <group id="1" value="1" />
  <group id="43" value="1" />
  </UnifacVLE>
<UnifacLLE name="UNIFAC-LLE">
  <group id="1" value="1" />
  <group id="23" value="1" />
  </UnifacLLE>
<Asog name="ASOG">
  <group id="1" value="1" />
  <group id="24" value="1" />
  </Asog>
<Umr name="UMR">
  <group id="1" value="1" />
  <group id="43" value="1" />
  </Umr>
<ModifiedUnifac name="Modified UNIFAC">
  <group id="1" value="1" />
  <group id="42" value="1" />
  </ModifiedUnifac>
<CAS name="CAS number" value="64-19-7" />
<Smiles name="SMILES" value="CC(=O)O" />
</compound>

