<compound>
<LibraryIndex name="Index" value="1774" />
<CompoundID name="Name" value="acrylonitrile" />
<StructureFormula name="Structure" value="CH2CHCN" />
<Family name="Family" value="38" />
<CriticalTemperature name="Critical temperature" units="K" value="535" />
<CriticalPressure name="Critical pressure" units="Pa" value="4480000" />
<CriticalVolume name="Critical volume" units="m3/kmol" value="0.212" />
<CriticalCompressibility name="Critical compressibility factor" units="_" value="0.214" />
<NormalBoilingPointTemperature name="Normal boiling point" units="K" value="350.5" />
<NormalMeltingPointTemperature name="Melting point" units="K" value="189.63" />
<TriplePointTemperature name="Triple point temperature" units="K" value="189.63" />
<TriplePointPressure name="Triple point pressure" units="Pa" value="3.68289" />
<MolecularWeight name="Molecular weight" units="kg/kmol" value="53.06262" />
<LiquidVolumeAtNormalBoilingPoint name="Liquid molar volume at normal boiling point" units="m3/kmol" value="0.0662367" />
<AcentricityFactor name="Acentric factor" units="_" value="0.349801" />
<RadiusOfGyration name="Radius of gyration" units="m" value="2.464E-10" />
<SolubilityParameter name="Solubility parameter" units="J0.5/m1.5" value="21560" />
<DipoleMoment name="Dipole moment" units="Coulomb.m" value="1.29E-29" />
<VanDerWaalsVolume name="Van der Waals volume" units="m3/kmol" value="0.0351" />
<VanDerWaalsArea name="Van der Waals area" units="m2/kmol" value="5.13E+08" />
<HeatOfFormation name="IG heat of formation" units="J/kmol" value="1.837E+08" />
<GibbsEnergyOfFormation name="IG Gibbs energy of formation" units="J/kmol" value="1.937E+08" />
<AbsEntropy name="IG absolute entropy" units="J/kmol/K" value="275300" />
<HeatOfFusionAtMeltingPoint name="Heat of fusion at melting point" units="J/kmol" value="6230000" />
<MatthiasCopemanC1 name="Mathias-Copeman C1" units="_" value="1.2803" />
<HeatOfCombustion name="Standard net heat of combustion LHV" units="J/kmol" value="-1.69E+09" />
<SolidDensity name="Solid density" units="kmol/m3">
  <eqno value="2" />
  <A value="21.906" />
  <B value="-0.012833" />
  <Tmin units="K" value="75.85" />
  <Tmax units="K" value="189.63" />
  </SolidDensity>
<LiquidDensity name="Liquid density" units="kmol/m3">
  <eqno value="105" />
  <A value="1.0816" />
  <B value="0.2293" />
  <C value="535" />
  <D value="0.28939" />
  <Tmin units="K" value="189.63" />
  <Tmax units="K" value="535" />
  </LiquidDensity>
<VaporPressure name="Vapour pressure" units="Pa">
  <eqno value="101" />
  <A value="74.54771" />
  <B value="-6259.727" />
  <C value="-7.785577" />
  <D value="4.08032E-06" />
  <E value="2" />
  <Tmin units="K" value="189.63" />
  <Tmax units="K" value="535" />
  </VaporPressure>
<HeatOfVaporization name="Heat of vaporization" units="J/kmol">
  <eqno value="106" />
  <A value="5.224752E+07" />
  <B value="0.877802" />
  <C value="-0.432396" />
  <D value="-0.672186" />
  <E value="0.607598" />
  <Tmin units="K" value="189.63" />
  <Tmax units="K" value="535" />
  </HeatOfVaporization>
<SolidHeatCapacityCp name="Solid heat capacity" units="J/kmol/K">
  <eqno value="100" />
  <A value="378880" />
  <B value="-12940" />
  <C value="173.11" />
  <D value="-0.95095" />
  <E value="0.001872" />
  <Tmin units="K" value="109.32" />
  <Tmax units="K" value="183.69" />
  </SolidHeatCapacityCp>
<LiquidHeatCapacityCp name="Liquid heat capacity" units="J/kmol/K">
  <eqno value="16" />
  <A value="83847" />
  <B value="240.59" />
  <C value="6.8887" />
  <D value="0.0095277" />
  <E value="-0.0000046046" />
  <Tmin units="K" value="189.63" />
  <Tmax units="K" value="400" />
  </LiquidHeatCapacityCp>
<IdealGasHeatCapacityCp name="Ideal gas heat capacity" units="J/kmol/K">
  <eqno value="16" />
  <A value="42651" />
  <B value="-533.04" />
  <C value="11.728" />
  <D value="0.00013096" />
  <E value="-6.2176E-08" />
  <Tmin units="K" value="200" />
  <Tmax units="K" value="1500" />
  </IdealGasHeatCapacityCp>
<SecondVirialCoefficient name="Second virial coefficient" units="m3/kmol">
  <eqno value="104" />
  <A value="0.16669" />
  <B value="-180.08" />
  <C value="-27.078" />
  <D value="1693.8" />
  <E value="-10134" />
  <Tmin units="K" value="267.5" />
  <Tmax units="K" value="2000" />
  </SecondVirialCoefficient>
<LiquidViscosity name="Liquid viscosity" units="Pa.s">
  <eqno value="101" />
  <A value="-0.5429" />
  <B value="318.29" />
  <C value="-1.481" />
  <D value="-8.3759E-07" />
  <E value="2" />
  <Tmin units="K" value="220" />
  <Tmax units="K" value="435" />
  </LiquidViscosity>
<VaporViscosity name="Vapour viscosity" units="Pa.s">
  <eqno value="102" />
  <A value="4.616E-08" />
  <B value="0.90278" />
  <C value="67.424" />
  <D value="-1672.6" />
  <Tmin units="K" value="189.63" />
  <Tmax units="K" value="1000" />
  </VaporViscosity>
<LiquidThermalConductivity name="Liquid thermal conductivity" units="W/m/K">
  <eqno value="16" />
  <A value="-0.15669" />
  <B value="19.22" />
  <C value="-1.0721" />
  <D value="0.00025871" />
  <E value="-0.0000022582" />
  <Tmin units="K" value="189.63" />
  <Tmax units="K" value="350.5" />
  </LiquidThermalConductivity>
<VaporThermalConductivity name="Vapour thermal conductivity" units="W/m/K">
  <eqno value="102" />
  <A value="0.0012317" />
  <B value="1.2472" />
  <C value="60863" />
  <D value="-1968600" />
  <Tmin units="K" value="189.63" />
  <Tmax units="K" value="990.5" />
  </VaporThermalConductivity>
<SurfaceTension name="Surface tension" units="N/m">
  <eqno value="16" />
  <A value="-0.031468" />
  <B value="13.152" />
  <C value="-2.5363" />
  <D value="-0.00042782" />
  <E value="-0.0000025175" />
  <Tmin units="K" value="189.63" />
  <Tmax units="K" value="535" />
  </SurfaceTension>
<RPPHeatCapacityCp name="Ideal gas heat capacity (RPP)" units="J/kmol/K">
  <eqno value="4" />
  <A value="10676.73" />
  <B value="220.6432" />
  <C value="-0.156498" />
  <D value="0.0000460366" />
  <Tmin units="K" value="200" />
  <Tmax units="K" value="1200" />
  </RPPHeatCapacityCp>
<RelativeStaticPermittivity name="Relative static permittivity" units="_">
  <eqno value="120" />
  <A value="-18.507" />
  <B value="-10000" />
  <C value="-99" />
  <Tmin units="K" value="275" />
  <Tmax units="K" value="445" />
  </RelativeStaticPermittivity>
<AntoineVaporPressure name="Antoine" units="Pa">
  <eqno value="10" />
  <A value="23.64" />
  <B value="4865.9" />
  <C value="50.629" />
  <Tmin units="K" value="323.15" />
  <Tmax units="K" value="480.47" />
  </AntoineVaporPressure>
<LiquidViscosityRPS name="Liquid viscosity (RPS)" units="Pa.s">
  <eqno value="13" />
  <A value="-3.2702" />
  <B value="-0.022461" />
  <C value="0.000022239" />
  <Tmin units="K" value="220" />
  <Tmax units="K" value="350.5" />
  </LiquidViscosityRPS>
<COSTALDVolume name="COSTLD characteristic volume (V*)" units="m3/kmol" value="0.186019" />
<DiameterLJ name="Lennard Jones diameter" units="m" value="7.077183E-10" />
<EnergyLJ name="Lennard Jones energy" units="K" value="135.7552" />
<RacketParameter name="Rackett parameter" units="_" value="0.220797" />
<FullerVolume name="Fuller et al. diffusion volume" units="_" value="59.17" />
<MatthiasCopemanC2 name="Mathias-Copeman C2" units="_" value="-2.1648" />
<Parachor name="Parachor" units="kg0.25.m3/s0.5/kmol" value="0.0272" />
<SpecificGravity name="Specific gravity" units="_" value="0.805" />
<Charge name="Charge" units="_" value="0" />
<CostaldAcentricFactor name="SRK acentric factor" units="_" value="0.349801" />
<WilsonVolume name="Wilson volume" units="m3/kmol" value="0.0662367" />
<UniquacR name="UNIQUAC r" units="_" value="2.31" />
<UniquacQ name="UNIQUAC q" units="_" value="2.05" />
<MatthiasCopemanC3 name="Mathias-Copeman C3" units="_" value="3.1533" />
<ChaoSeaderAcentricFactor name="Chao-Seader acentric factor" units="_" value="0.349801" />
<ChaoSeaderSolubilityParameter name="Chao-Seader solubility parameter" units="J0.5/m1.5" value="21555.4" />
<ChaoSeaderLiquidVolume name="Chao-Seader liquid volume" units="m3/kmol" value="0.0662367" />
<UnifacVLE name="UNIFAC">
  <group id="69" value="1" />
  </UnifacVLE>
<Asog name="ASOG">
  <group id="49" value="1" />
  </Asog>
<GCmethod name="PPR78">
  <group id="69" value="1" />
  </GCmethod>
<Umr name="UMR">
  <group id="69" value="1" />
  </Umr>
<ModifiedUnifac name="Modified UNIFAC">
  <group id="68" value="1" />
  </ModifiedUnifac>
<CAS name="CAS number" value="107-13-1" />
<Smiles name="SMILES" value="C=CC#N" />
</compound>

