<compound>
<LibraryIndex name="Index" value="1911" />
<CompoundID name="Name" value="ammonia" />
<StructureFormula name="Structure" value="NH3" />
<Family name="Family" value="78" />
<CriticalTemperature name="Critical temperature" units="K" value="405.4" />
<CriticalPressure name="Critical pressure" units="Pa" value="1.1353E+07" />
<CriticalVolume name="Critical volume" units="m3/kmol" value="0.07247" />
<CriticalCompressibility name="Critical compressibility factor" units="_" value="0.255" />
<NormalBoilingPointTemperature name="Normal boiling point" units="K" value="239.82" />
<NormalMeltingPointTemperature name="Melting point" units="K" value="195.41" />
<TriplePointTemperature name="Triple point temperature" units="K" value="195.41" />
<TriplePointPressure name="Triple point pressure" units="Pa" value="6111.09" />
<MolecularWeight name="Molecular weight" units="kg/kmol" value="17.03052" />
<LiquidVolumeAtNormalBoilingPoint name="Liquid molar volume at normal boiling point" units="m3/kmol" value="0.02496" />
<AcentricityFactor name="Acentric factor" units="_" value="0.256" />
<RadiusOfGyration name="Radius of gyration" units="m" value="8.533E-11" />
<SolubilityParameter name="Solubility parameter" units="J0.5/m1.5" value="24790" />
<DipoleMoment name="Dipole moment" units="Coulomb.m" value="4.9E-30" />
<VanDerWaalsVolume name="Van der Waals volume" units="m3/kmol" value="0.0138" />
<VanDerWaalsArea name="Van der Waals area" units="m2/kmol" value="2.45E+08" />
<HeatOfFormation name="IG heat of formation" units="J/kmol" value="-4.5898E+07" />
<GibbsEnergyOfFormation name="IG Gibbs energy of formation" units="J/kmol" value="-1.64E+07" />
<AbsEntropy name="IG absolute entropy" units="J/kmol/K" value="192660" />
<HeatOfFusionAtMeltingPoint name="Heat of fusion at melting point" units="J/kmol" value="5657000" />
<MatthiasCopemanC1 name="Mathias-Copeman C1" units="_" value="0.8625" />
<HeatOfCombustion name="Standard net heat of combustion LHV" units="J/kmol" value="-3.1683E+08" />
<SolidDensity name="Solid density" units="kmol/m3">
  <eqno value="2" />
  <A value="47.973" />
  <B value="-1.0295E-08" />
  <Tmin units="K" value="194.15" />
  <Tmax units="K" value="203.65" />
  </SolidDensity>
<LiquidDensity name="Liquid density" units="kmol/m3">
  <eqno value="105" />
  <A value="4.0518" />
  <B value="0.27129" />
  <C value="405.4" />
  <D value="0.31349" />
  <Tmin units="K" value="195" />
  <Tmax units="K" value="405.15" />
  </LiquidDensity>
<VaporPressure name="Vapour pressure" units="Pa">
  <eqno value="101" />
  <A value="62.8849" />
  <B value="-4136.862" />
  <C value="-6.320663" />
  <D value="9.203947E-06" />
  <E value="2" />
  <Tmin units="K" value="191.24" />
  <Tmax units="K" value="406.05" />
  </VaporPressure>
<HeatOfVaporization name="Heat of vaporization" units="J/kmol">
  <eqno value="106" />
  <A value="2.4542E+07" />
  <B value="-1.3178" />
  <C value="4.7194" />
  <D value="-5.4808" />
  <E value="2.4196" />
  <Tmin units="K" value="195.41" />
  <Tmax units="K" value="403.15" />
  </HeatOfVaporization>
<SolidHeatCapacityCp name="Solid heat capacity" units="J/kmol/K">
  <eqno value="100" />
  <A value="-5983.8" />
  <B value="380.66" />
  <C value="-0.59542" />
  <D value="-0.00029099" />
  <E value="0.0000049048" />
  <Tmin units="K" value="20" />
  <Tmax units="K" value="190" />
  </SolidHeatCapacityCp>
<LiquidHeatCapacityCp name="Liquid heat capacity" units="J/kmol/K">
  <eqno value="16" />
  <A value="77659" />
  <B value="-45330" />
  <C value="445.74" />
  <D value="-1.4197" />
  <E value="0.0015508" />
  <Tmin units="K" value="195.45" />
  <Tmax units="K" value="401.15" />
  </LiquidHeatCapacityCp>
<IdealGasHeatCapacityCp name="Ideal gas heat capacity" units="J/kmol/K">
  <eqno value="16" />
  <A value="33239" />
  <B value="-913.64" />
  <C value="10.802" />
  <D value="0.00021047" />
  <E value="-4.1739E-08" />
  <Tmin units="K" value="100" />
  <Tmax units="K" value="1500" />
  </IdealGasHeatCapacityCp>
<SecondVirialCoefficient name="Second virial coefficient" units="m3/kmol">
  <eqno value="104" />
  <A value="0.022146" />
  <B value="-24.138" />
  <C value="-4.7806" />
  <D value="-283.84" />
  <E value="438.72" />
  <Tmin units="K" value="200" />
  <Tmax units="K" value="700" />
  </SecondVirialCoefficient>
<LiquidViscosity name="Liquid viscosity" units="Pa.s">
  <eqno value="101" />
  <A value="-39.742" />
  <B value="1486.5" />
  <C value="4.7749" />
  <D value="-0.000015796" />
  <E value="2" />
  <Tmin units="K" value="195.41" />
  <Tmax units="K" value="398.15" />
  </LiquidViscosity>
<VaporViscosity name="Vapour viscosity" units="Pa.s">
  <eqno value="102" />
  <A value="0.0000000459" />
  <B value="0.96936" />
  <C value="48.366" />
  <D value="-2671.4" />
  <Tmin units="K" value="194.6" />
  <Tmax units="K" value="1000" />
  </VaporViscosity>
<LiquidThermalConductivity name="Liquid thermal conductivity" units="W/m/K">
  <eqno value="16" />
  <A value="-0.95309" />
  <B value="14.684" />
  <C value="0.56768" />
  <D value="-0.00028968" />
  <E value="-0.0000019238" />
  <Tmin units="K" value="195.41" />
  <Tmax units="K" value="400.05" />
  </LiquidThermalConductivity>
<VaporThermalConductivity name="Vapour thermal conductivity" units="W/m/K">
  <eqno value="102" />
  <A value="0.000016165" />
  <B value="1.3146" />
  <C value="75.168" />
  <D value="-8202.1" />
  <Tmin units="K" value="200" />
  <Tmax units="K" value="900" />
  </VaporThermalConductivity>
<SurfaceTension name="Surface tension" units="N/m">
  <eqno value="16" />
  <A value="-0.01195" />
  <B value="209.99" />
  <C value="-5.1813" />
  <D value="0.011762" />
  <E value="-0.000027715" />
  <Tmin units="K" value="195.41" />
  <Tmax units="K" value="405.55" />
  </SurfaceTension>
<RPPHeatCapacityCp name="Ideal gas heat capacity (RPP)" units="J/kmol/K">
  <eqno value="100" />
  <A value="35237" />
  <B value="-35.045" />
  <C value="0.1697" />
  <D value="-0.00017677" />
  <E value="6.3273E-08" />
  <Tmin units="K" value="50" />
  <Tmax units="K" value="1000" />
  </RPPHeatCapacityCp>
<RelativeStaticPermittivity name="Relative static permittivity" units="_">
  <eqno value="120" />
  <A value="4.496581" />
  <B value="-2921.581" />
  <C value="-67.15132" />
  <Tmin units="K" value="203" />
  <Tmax units="K" value="405" />
  </RelativeStaticPermittivity>
<AntoineVaporPressure name="Antoine" units="Pa">
  <eqno value="10" />
  <A value="22.41" />
  <B value="2389.4" />
  <C value="-20.094" />
  <Tmin units="K" value="245.37" />
  <Tmax units="K" value="363.15" />
  </AntoineVaporPressure>
<LiquidViscosityRPS name="Liquid viscosity (RPS)" units="Pa.s">
  <eqno value="13" />
  <A value="-4.4864" />
  <B value="-0.018932" />
  <C value="0.000013325" />
  <Tmin units="K" value="195.41" />
  <Tmax units="K" value="398.15" />
  </LiquidViscosityRPS>
<COSTALDVolume name="COSTLD characteristic volume (V*)" units="m3/kmol" value="0.07011" />
<DiameterLJ name="Lennard Jones diameter" units="m" value="3.15E-10" />
<EnergyLJ name="Lennard Jones energy" units="K" value="358" />
<FullerVolume name="Fuller et al. diffusion volume" units="_" value="20.7" />
<MatthiasCopemanC2 name="Mathias-Copeman C2" units="_" value="0.15459" />
<Parachor name="Parachor" units="kg0.25.m3/s0.5/kmol" value="0.0108" />
<SpecificGravity name="Specific gravity" units="_" value="0.616067" />
<Charge name="Charge" units="_" value="0" />
<CostaldAcentricFactor name="SRK acentric factor" units="_" value="0.26199" />
<WilsonVolume name="Wilson volume" units="m3/kmol" value="0.0249801" />
<UniquacR name="UNIQUAC r" units="_" value="0.9097" />
<UniquacQ name="UNIQUAC q" units="_" value="0.98" />
<UniquacQP name="UNIQUAC q'" units="_" value="1" />
<ApiSrkS1 name="API-SRK s1" units="_" value="0.975515" />
<ApiSrkS2 name="API-SRK s2" units="_" value="-0.087598" />
<MatthiasCopemanC3 name="Mathias-Copeman C3" units="_" value="-0.78649" />
<ChaoSeaderAcentricFactor name="Chao-Seader acentric factor" units="_" value="0.2517" />
<ChaoSeaderSolubilityParameter name="Chao-Seader solubility parameter" units="J0.5/m1.5" value="29224.9" />
<ChaoSeaderLiquidVolume name="Chao-Seader liquid volume" units="m3/kmol" value="0.0249801" />
<GCmethod name="PPR78">
  <group id="35" value="1" />
  </GCmethod>
<Umr name="UMR">
  <group id="223" value="1" />
  </Umr>
<CAS name="CAS number" value="7664-41-7" />
<Smiles name="SMILES" value="N" />
</compound>

