<compound>
<LibraryIndex name="Index"  value="501" />
<CompoundID name="Name"  value="Benzene" />
<StructureFormula name="Structure"  value="-CHCHCHCHCHCH-" />
<Family name="Family"  value="16" />
<CriticalTemperature name="Critical temperature"  units="K"  value="562.05" />
<CriticalPressure name="Critical pressure"  units="Pa"  value="4895000" />
<CriticalVolume name="Critical volume"  units="m3/kmol"  value="0.256" />
<CriticalCompressibility name="Critical compressibility factor"  units="_"  value="0.268" />
<NormalBoilingPointTemperature name="Normal boiling point"  units="K"  value="353.24" />
<NormalMeltingPointTemperature name="Melting point"  units="K"  value="278.68" />
<TriplePointTemperature name="Triple point temperature"  units="K"  value="278.68" />
<TriplePointPressure name="Triple point pressure"  units="Pa"  value="4764.22" />
<MolecularWeight name="Molecular weight"  units="kg/kmol"  value="78.11184" />
<LiquidVolumeAtNormalBoilingPoint name="Liquid molar volume at normal boiling point"  units="m3/kmol"  value="0.08941" />
<AcentricityFactor name="Acentric factor"  units="_"  value="0.209" />
<RadiusOfGyration name="Radius of gyration"  units="m"  value="3.004E-10" />
<SolubilityParameter name="Solubility parameter"  units="J0.5/m1.5"  value="18700" />
<DipoleMoment name="Dipole moment"  units="Coulomb.m"  value="0" />
<VanDerWaalsVolume name="Van der Waals volume"  units="m3/kmol"  value="0.0484" />
<VanDerWaalsArea name="Van der Waals area"  units="m2/kmol"  value="6.0E+08" />
<HeatOfFormation name="IG heat of formation"  units="J/kmol"  value="8.288E+07" />
<GibbsEnergyOfFormation name="IG Gibbs energy of formation"  units="J/kmol"  value="1.296E+08" />
<AbsEntropy name="IG absolute entropy"  units="J/kmol/K"  value="269300" />
<HeatOfFusionAtMeltingPoint name="Heat of fusion at melting point"  units="J/kmol"  value="9866000" />
<MatthiasCopemanC1 name="Mathias-Copeman C1"  units="_"  value="0.8356" />
<HeatOfCombustion name="Standard net heat of combustion LHV"  units="J/kmol"  value="-3.136E+09" />
<SolidDensity name="Solid density"  units="kmol/m3" >
  <eqno value="2" />
  <A value="13.059" />
  <B value="-0.00034838" />
  <Tmin units="K"  value="273.1" />
  <Tmax units="K"  value="282.6" />
  </SolidDensity>
<LiquidDensity name="Liquid density"  units="kmol/m3" >
  <eqno value="105" />
  <A value="0.99938" />
  <B value="0.26348" />
  <C value="562.05" />
  <D value="0.27856" />
  <Tmin units="K"  value="273.1" />
  <Tmax units="K"  value="562.05" />
  </LiquidDensity>
<VaporPressure name="Vapour pressure"  units="Pa" >
  <eqno value="101" />
  <A value="88.368" />
  <B value="-6712.9" />
  <C value="-10.022" />
  <D value="0.000007694" />
  <E value="2" />
  <Tmin units="K"  value="272.04" />
  <Tmax units="K"  value="562.16" />
  </VaporPressure>
<HeatOfVaporization name="Heat of vaporization"  units="J/kmol" >
  <eqno value="106" />
  <A value="4.881E+07" />
  <B value="0.61066" />
  <C value="-0.25882" />
  <D value="0.032238" />
  <E value="0.022475" />
  <Tmin units="K"  value="273.1" />
  <Tmax units="K"  value="562.05" />
  </HeatOfVaporization>
<SolidHeatCapacityCp name="Solid heat capacity"  units="J/kmol/K" >
  <eqno value="100" />
  <A value="-124.61" />
  <B value="909.02" />
  <C value="-6.049" />
  <D value="0.022885" />
  <E value="-0.000024638" />
  <Tmin units="K"  value="40" />
  <Tmax units="K"  value="278.7" />
  </SolidHeatCapacityCp>
<LiquidHeatCapacityCp name="Liquid heat capacity"  units="J/kmol/K" >
  <eqno value="16" />
  <A value="111460" />
  <B value="-1854.3" />
  <C value="22.399" />
  <D value="-0.028936" />
  <E value="0.000028991" />
  <Tmin units="K"  value="278.68" />
  <Tmax units="K"  value="500" />
  </LiquidHeatCapacityCp>
<IdealGasHeatCapacityCp name="Ideal gas heat capacity"  units="J/kmol/K" >
  <eqno value="16" />
  <A value="34010.24" />
  <B value="-588.0978" />
  <C value="12.81777" />
  <D value="-0.000197306" />
  <E value="5.142899E-08" />
  <Tmin units="K"  value="80" />
  <Tmax units="K"  value="1500" />
  </IdealGasHeatCapacityCp>
<SecondVirialCoefficient name="Second virial coefficient"  units="m3/kmol" >
  <eqno value="104" />
  <A value="0.17507" />
  <B value="-220.13" />
  <C value="-18.085" />
  <D value="-7404.6" />
  <E value="16690" />
  <Tmin units="K"  value="281.02" />
  <Tmax units="K"  value="1967" />
  </SecondVirialCoefficient>
<LiquidViscosity name="Liquid viscosity"  units="Pa.s" >
  <eqno value="101" />
  <A value="-24.61" />
  <B value="1576.5" />
  <C value="2.1698" />
  <D value="-0.0000051366" />
  <E value="2" />
  <Tmin units="K"  value="278.68" />
  <Tmax units="K"  value="562" />
  </LiquidViscosity>
<VaporViscosity name="Vapour viscosity"  units="Pa.s" >
  <eqno value="102" />
  <A value="3.1366E-08" />
  <B value="0.9675" />
  <C value="8.0285" />
  <D value="-35.629" />
  <Tmin units="K"  value="273.1" />
  <Tmax units="K"  value="1000" />
  </VaporViscosity>
<LiquidThermalConductivity name="Liquid thermal conductivity"  units="W/m/K" >
  <eqno value="16" />
  <A value="0.049539" />
  <B value="-177.97" />
  <C value="0.19475" />
  <D value="-0.0073805" />
  <E value="0.0000027938" />
  <Tmin units="K"  value="273.1" />
  <Tmax units="K"  value="413.1" />
  </LiquidThermalConductivity>
<VaporThermalConductivity name="Vapour thermal conductivity"  units="W/m/K" >
  <eqno value="102" />
  <A value="0.0000049549" />
  <B value="1.4519" />
  <C value="154.14" />
  <D value="26202" />
  <Tmin units="K"  value="278.68" />
  <Tmax units="K"  value="1000" />
  </VaporThermalConductivity>
<SurfaceTension name="Surface tension"  units="N/m" >
  <eqno value="16" />
  <A value="-0.02575" />
  <B value="-212.19" />
  <C value="-0.62089" />
  <D value="-0.0059738" />
  <E value="0.0000021771" />
  <Tmin units="K"  value="273.1" />
  <Tmax units="K"  value="562.05" />
  </SurfaceTension>
<RPPHeatCapacityCp name="Ideal gas heat capacity (RPP)"  units="J/kmol/K" >
  <eqno value="100" />
  <A value="29525" />
  <B value="-51.417" />
  <C value="1.1944" />
  <D value="-0.0016468" />
  <E value="6.8461E-07" />
  <Tmin units="K"  value="50" />
  <Tmax units="K"  value="1000" />
  </RPPHeatCapacityCp>
<RelativeStaticPermittivity name="Relative static permittivity"  units="_" >
  <eqno value="120" />
  <A value="-1.717467" />
  <B value="-1150" />
  <C value="-6.9" />
  <Tmin units="K"  value="274.15" />
  <Tmax units="K"  value="444.15" />
  </RelativeStaticPermittivity>
<AntoineVaporPressure name="Antoine"  units="Pa" >
  <eqno value="10" />
  <A value="21.075" />
  <B value="2977.3" />
  <C value="-41.505" />
  <Tmin units="K"  value="338" />
  <Tmax units="K"  value="505.4" />
  </AntoineVaporPressure>
<LiquidViscosityRPS name="Liquid viscosity (RPS)"  units="Pa.s" >
  <eqno value="13" />
  <A value="-2.719" />
  <B value="-0.019734" />
  <C value="0.000013263" />
  <Tmin units="K"  value="278.68" />
  <Tmax units="K"  value="545" />
  </LiquidViscosityRPS>
<COSTALDVolume name="COSTLD characteristic volume (V*)"  units="m3/kmol"  value="0.25639" />
<DiameterLJ name="Lennard Jones diameter"  units="m"  value="5.753029E-10" />
<EnergyLJ name="Lennard Jones energy"  units="K"  value="320.6073" />
<RacketParameter name="Rackett parameter"  units="_"  value="0.2696" />
<FullerVolume name="Fuller et al. diffusion volume"  units="_"  value="90.95999" />
<MatthiasCopemanC2 name="Mathias-Copeman C2"  units="_"  value="-0.375" />
<Parachor name="Parachor"  units="kg0.25.m3/s0.5/kmol"  value="0.0367" />
<SpecificGravity name="Specific gravity"  units="_"  value="0.882619" />
<Charge name="Charge"  units="_"  value="0" />
<CostaldAcentricFactor name="SRK acentric factor"  units="_"  value="0.21367" />
<WilsonVolume name="Wilson volume"  units="m3/kmol"  value="0.08941" />
<UniquacR  name="UNIQUAC r"  units="_"  value="3.1878" />
<UniquacQ  name="UNIQUAC q"  units="_"  value="2.4" />
<UniquacQP name="UNIQUAC q'"  units="_"  value="2.4" />
<ApiSrkS2 name="API-SRK s2"  units="_"  value="-0.000318" />
<MatthiasCopemanC3 name="Mathias-Copeman C3"  units="_"  value="0.9715" />
<ChaoSeaderAcentricFactor name="Chao-Seader acentric factor"  units="_"  value="0.213" />
<ChaoSeaderSolubilityParameter name="Chao-Seader solubility parameter"  units="J0.5/m1.5"  value="18736.78" />
<ChaoSeaderLiquidVolume name="Chao-Seader liquid volume"  units="m3/kmol"  value="0.0894" />
<UnifacVLE name="UNIFAC" >
  <group id="10"  value="6" />
  </UnifacVLE>
<UnifacLLE name="UNIFAC-LLE" >
  <group id="9"  value="6" />
  </UnifacLLE>
<Asog name="ASOG" >
  <group id="10"  value="6" />
  </Asog>
<GCmethod name="PPR78" >
  <group id="7"  value="6" />
  </GCmethod>
<Umr name="UMR" >
  <group id="10"  value="6" />
  </Umr>
<ModifiedUnifac name="Modified UNIFAC" >
  <group id="9"  value="6" />
  </ModifiedUnifac>
<CAS name="CAS number"  value="71-43-2" />
<Smiles name="SMILES"  value="c1ccccc1" />
</compound>