<compound>
<LibraryIndex name="Index" value="922" />
<CompoundID name="Name" value="bromine" />
<StructureFormula name="Structure" value="BrBr" />
<Family name="Family" value="74" />
<CriticalTemperature name="Critical temperature" units="K" value="584.15" />
<CriticalPressure name="Critical pressure" units="Pa" value="1.03E+07" />
<CriticalVolume name="Critical volume" units="m3/kmol" value="0.135" />
<CriticalCompressibility name="Critical compressibility factor" units="_" value="0.286" />
<NormalBoilingPointTemperature name="Normal boiling point" units="K" value="331.9" />
<NormalMeltingPointTemperature name="Melting point" units="K" value="265.9" />
<TriplePointTemperature name="Triple point temperature" units="K" value="265.85" />
<TriplePointPressure name="Triple point pressure" units="Pa" value="5853.37" />
<MolecularWeight name="Molecular weight" units="kg/kmol" value="159.808" />
<LiquidVolumeAtNormalBoilingPoint name="Liquid molar volume at normal boiling point" units="m3/kmol" value="0.0514795" />
<AcentricityFactor name="Acentric factor" units="_" value="0.128997" />
<RadiusOfGyration name="Radius of gyration" units="m" value="9.69E-11" />
<SolubilityParameter name="Solubility parameter" units="J0.5/m1.5" value="23590" />
<DipoleMoment name="Dipole moment" units="Coulomb.m" value="0" />
<VanDerWaalsVolume name="Van der Waals volume" units="m3/kmol" value="0.0288" />
<VanDerWaalsArea name="Van der Waals area" units="m2/kmol" value="4.18E+08" />
<HeatOfFormation name="IG heat of formation" units="J/kmol" value="3.091E+07" />
<GibbsEnergyOfFormation name="IG Gibbs energy of formation" units="J/kmol" value="3140000" />
<AbsEntropy name="IG absolute entropy" units="J/kmol/K" value="245350" />
<HeatOfFusionAtMeltingPoint name="Heat of fusion at melting point" units="J/kmol" value="1.057E+07" />
<MatthiasCopemanC1 name="Mathias-Copeman C1" units="_" value="0.68333" />
<HeatOfCombustion name="Standard net heat of combustion LHV" units="J/kmol" value="0" />
<SolidDensity name="Solid density" units="kmol/m3">
  <eqno value="2" />
  <A value="25.7" />
  <B value="1.8384E-08" />
  <Tmin units="K" value="79.15" />
  <Tmax units="K" value="88.65" />
  </SolidDensity>
<LiquidDensity name="Liquid density" units="kmol/m3">
  <eqno value="105" />
  <A value="2.0603" />
  <B value="0.28982" />
  <C value="584.15" />
  <D value="0.28948" />
  <Tmin units="K" value="265.85" />
  <Tmax units="K" value="584.15" />
  </LiquidDensity>
<VaporPressure name="Vapour pressure" units="Pa">
  <eqno value="101" />
  <A value="63.657" />
  <B value="-5321.6" />
  <C value="-6.3199" />
  <D value="0.0000054412" />
  <E value="2" />
  <Tmin units="K" value="265.15" />
  <Tmax units="K" value="584.15" />
  </VaporPressure>
<HeatOfVaporization name="Heat of vaporization" units="J/kmol">
  <eqno value="106" />
  <A value="3.8419E+07" />
  <B value="-0.26282" />
  <C value="2.1808" />
  <D value="-2.7529" />
  <E value="1.1823" />
  <Tmin units="K" value="265.85" />
  <Tmax units="K" value="584.15" />
  </HeatOfVaporization>
<SolidHeatCapacityCp name="Solid heat capacity" units="J/kmol/K">
  <eqno value="100" />
  <A value="-8018.8" />
  <B value="1284.8" />
  <C value="-11.519" />
  <D value="0.046329" />
  <E value="-0.000065817" />
  <Tmin units="K" value="15" />
  <Tmax units="K" value="265.9" />
  </SolidHeatCapacityCp>
<LiquidHeatCapacityCp name="Liquid heat capacity" units="J/kmol/K">
  <eqno value="16" />
  <A value="75351" />
  <B value="-4.87E+07" />
  <C value="54033" />
  <D value="102.73" />
  <E value="0.43775" />
  <Tmin units="K" value="265.9" />
  <Tmax units="K" value="331.9" />
  </LiquidHeatCapacityCp>
<IdealGasHeatCapacityCp name="Ideal gas heat capacity" units="J/kmol/K">
  <eqno value="16" />
  <A value="35000" />
  <B value="-410" />
  <C value="8.5" />
  <D value="-0.00016" />
  <E value="-0.00000001" />
  <Tmin units="K" value="50" />
  <Tmax units="K" value="1500" />
  </IdealGasHeatCapacityCp>
<SecondVirialCoefficient name="Second virial coefficient" units="m3/kmol">
  <eqno value="104" />
  <A value="0.073884" />
  <B value="-101.75" />
  <C value="-12.933" />
  <D value="11359" />
  <E value="-33103" />
  <Tmin units="K" value="282.08" />
  <Tmax units="K" value="2000" />
  </SecondVirialCoefficient>
<LiquidViscosity name="Liquid viscosity" units="Pa.s">
  <eqno value="101" />
  <A value="-5.9813" />
  <B value="410.55" />
  <C value="-0.30036" />
  <D value="-0.000006936" />
  <E value="2" />
  <Tmin units="K" value="265.85" />
  <Tmax units="K" value="350" />
  </LiquidViscosity>
<VaporViscosity name="Vapour viscosity" units="Pa.s">
  <eqno value="102" />
  <A value="1.1438E-07" />
  <B value="0.88111" />
  <C value="59.595" />
  <D value="-6723.3" />
  <Tmin units="K" value="265.85" />
  <Tmax units="K" value="600" />
  </VaporViscosity>
<LiquidThermalConductivity name="Liquid thermal conductivity" units="W/m/K">
  <eqno value="16" />
  <A value="-0.69183" />
  <B value="27.775" />
  <C value="-0.38966" />
  <D value="0.00057103" />
  <E value="-8.8462E-07" />
  <Tmin units="K" value="260" />
  <Tmax units="K" value="584" />
  </LiquidThermalConductivity>
<VaporThermalConductivity name="Vapour thermal conductivity" units="W/m/K">
  <eqno value="102" />
  <A value="0.0000065648" />
  <B value="1.4785" />
  <C value="4505.6" />
  <D value="-870500" />
  <Tmin units="K" value="265.85" />
  <Tmax units="K" value="520" />
  </VaporThermalConductivity>
<SurfaceTension name="Surface tension" units="N/m">
  <eqno value="16" />
  <A value="-0.014274" />
  <B value="235.98" />
  <C value="-4.5131" />
  <D value="0.0059159" />
  <E value="-0.000010567" />
  <Tmin units="K" value="265.85" />
  <Tmax units="K" value="584.15" />
  </SurfaceTension>
<RPPHeatCapacityCp name="Ideal gas heat capacity (RPP)" units="J/kmol/K">
  <eqno value="4" />
  <A value="35550.42" />
  <B value="3.836859" />
  <C value="-0.0019729" />
  <D value="3.186391E-07" />
  <Tmin units="K" value="100" />
  <Tmax units="K" value="1500" />
  </RPPHeatCapacityCp>
<RelativeStaticPermittivity name="Relative static permittivity" units="_">
  <eqno value="1" />
  <A value="1.0128" />
  <Tmin units="K" value="100" />
  <Tmax units="K" value="1500" />
  </RelativeStaticPermittivity>
<AntoineVaporPressure name="Antoine" units="Pa">
  <eqno value="10" />
  <A value="22.108" />
  <B value="3517.5" />
  <C value="1.886" />
  <Tmin units="K" value="351.95" />
  <Tmax units="K" value="517.14" />
  </AntoineVaporPressure>
<LiquidViscosityRPS name="Liquid viscosity (RPS)" units="Pa.s">
  <eqno value="13" />
  <A value="-3.1152" />
  <B value="-0.015793" />
  <C value="0.000010028" />
  <Tmin units="K" value="265.85" />
  <Tmax units="K" value="350" />
  </LiquidViscosityRPS>
<COSTALDVolume name="COSTLD characteristic volume (V*)" units="m3/kmol" value="0.152689" />
<DiameterLJ name="Lennard Jones diameter" units="m" value="4.29916E-10" />
<EnergyLJ name="Lennard Jones energy" units="K" value="421.071" />
<RacketParameter name="Rackett parameter" units="_" value="0.279241" />
<FullerVolume name="Fuller et al. diffusion volume" units="_" value="69" />
<MatthiasCopemanC2 name="Mathias-Copeman C2" units="_" value="0" />
<Parachor name="Parachor" units="kg0.25.m3/s0.5/kmol" value="0.0233" />
<SpecificGravity name="Specific gravity" units="_" value="3.35803" />
<Charge name="Charge" units="_" value="0" />
<CostaldAcentricFactor name="SRK acentric factor" units="_" value="0.108" />
<WilsonVolume name="Wilson volume" units="m3/kmol" value="0.0514795" />
<UniquacR name="UNIQUAC r" units="_" value="1.8985" />
<UniquacQ name="UNIQUAC q" units="_" value="1.672" />
<MatthiasCopemanC3 name="Mathias-Copeman C3" units="_" value="0" />
<ChaoSeaderAcentricFactor name="Chao-Seader acentric factor" units="_" value="0.108" />
<ChaoSeaderSolubilityParameter name="Chao-Seader solubility parameter" units="J0.5/m1.5" value="23591.8" />
<ChaoSeaderLiquidVolume name="Chao-Seader liquid volume" units="m3/kmol" value="0.0514795" />
<Umr name="UMR">
  <group id="208" value="1" />
  </Umr>
<CAS name="CAS number" value="7726-95-6" />
<Smiles name="SMILES" value="BrBr" />
</compound>

