<compound>
<LibraryIndex name="Index" value="1447" />
<CompoundID name="Name" value="butyl vinyl ether" />
<StructureFormula name="Structure" value="C4H9OCHCH2" />
<Family name="Family" value="61" />
<CriticalTemperature name="Critical temperature" units="K" value="540.5" />
<CriticalPressure name="Critical pressure" units="Pa" value="3200000" />
<CriticalVolume name="Critical volume" units="m3/kmol" value="0.38362" />
<CriticalCompressibility name="Critical compressibility factor" units="_" value="0.273" />
<NormalBoilingPointTemperature name="Normal boiling point" units="K" value="367.131" />
<NormalMeltingPointTemperature name="Melting point" units="K" value="181.15" />
<TriplePointTemperature name="Triple point temperature" units="K" value="181.15" />
<TriplePointPressure name="Triple point pressure" units="Pa" value="0.134811" />
<MolecularWeight name="Molecular weight" units="kg/kmol" value="100.1589" />
<LiquidVolumeAtNormalBoilingPoint name="Liquid molar volume at normal boiling point" units="m3/kmol" value="0.130251" />
<AcentricityFactor name="Acentric factor" units="_" value="0.358" />
<RadiusOfGyration name="Radius of gyration" units="m" value="3.806E-10" />
<SolubilityParameter name="Solubility parameter" units="J0.5/m1.5" value="16460" />
<DipoleMoment name="Dipole moment" units="Coulomb.m" value="4.16955E-30" />
<VanDerWaalsVolume name="Van der Waals volume" units="m3/kmol" value="0.0684699" />
<VanDerWaalsArea name="Van der Waals area" units="m2/kmol" value="9.71E+08" />
<HeatOfFormation name="IG heat of formation" units="J/kmol" value="-1.83E+08" />
<GibbsEnergyOfFormation name="IG Gibbs energy of formation" units="J/kmol" value="-3.61974E+07" />
<AbsEntropy name="IG absolute entropy" units="J/kmol/K" value="428000" />
<HeatOfFusionAtMeltingPoint name="Heat of fusion at melting point" units="J/kmol" value="1.38E+07" />
<MatthiasCopemanC1 name="Mathias-Copeman C1" units="_" value="1.10759" />
<HeatOfCombustion name="Standard net heat of combustion LHV" units="J/kmol" value="-3.59144E+09" />
<SolidDensity name="Solid density" units="kmol/m3">
  <eqno value="2" />
  <A value="11.146" />
  <B value="-0.0067994" />
  <C value="0" />
  <D value="0" />
  <E value="0" />
  <Tmin units="K" value="72.46" />
  <Tmax units="K" value="181.15" />
  </SolidDensity>
<LiquidDensity name="Liquid density" units="kmol/m3">
  <eqno value="105" />
  <A value="0.51202" />
  <B value="0.22443" />
  <C value="540.5" />
  <D value="0.25269" />
  <Tmin units="K" value="181.15" />
  <Tmax units="K" value="517.32" />
  </LiquidDensity>
<VaporPressure name="Vapour pressure" units="Pa">
  <eqno value="101" />
  <A value="80.48089" />
  <B value="-6835.53" />
  <C value="-8.641032" />
  <D value="5.192611E-06" />
  <E value="2" />
  <Tmin units="K" value="181.15" />
  <Tmax units="K" value="536" />
  </VaporPressure>
<HeatOfVaporization name="Heat of vaporization" units="J/kmol">
  <eqno value="106" />
  <A value="5.9857E+07" />
  <B value="1.4054" />
  <C value="-2.9112" />
  <D value="3.3585" />
  <E value="-1.4378" />
  <Tmin units="K" value="181.15" />
  <Tmax units="K" value="536" />
  </HeatOfVaporization>
<SolidHeatCapacityCp name="Solid heat capacity" units="J/kmol/K">
  <eqno value="1" />
  <A value="177040" />
  <Tmin units="K" value="0" />
  <Tmax units="K" value="540.5" />
  </SolidHeatCapacityCp>
<LiquidHeatCapacityCp name="Liquid heat capacity" units="J/kmol/K">
  <eqno value="16" />
  <A value="179060" />
  <B value="294.15" />
  <C value="4.464" />
  <D value="0.023293" />
  <E value="-0.000021892" />
  <Tmin units="K" value="225" />
  <Tmax units="K" value="366.97" />
  </LiquidHeatCapacityCp>
<IdealGasHeatCapacityCp name="Ideal gas heat capacity" units="J/kmol/K">
  <eqno value="16" />
  <A value="70271" />
  <B value="-440.11" />
  <C value="12.531" />
  <D value="0.00054467" />
  <E value="-2.1666E-07" />
  <Tmin units="K" value="273" />
  <Tmax units="K" value="1500" />
  </IdealGasHeatCapacityCp>
<SecondVirialCoefficient name="Second virial coefficient" units="m3/kmol">
  <eqno value="104" />
  <A value="0.2416" />
  <B value="-256" />
  <C value="-40.57" />
  <D value="859.83" />
  <E value="-11281" />
  <Tmin units="K" value="268" />
  <Tmax units="K" value="2000" />
  </SecondVirialCoefficient>
<LiquidViscosity name="Liquid viscosity" units="Pa.s">
  <eqno value="101" />
  <A value="-13.973" />
  <B value="1139.1" />
  <C value="0.44727" />
  <D value="-0.0000011861" />
  <E value="2" />
  <Tmin units="K" value="181.15" />
  <Tmax units="K" value="440" />
  </LiquidViscosity>
<VaporViscosity name="Vapour viscosity" units="Pa.s">
  <eqno value="102" />
  <A value="9.4315E-08" />
  <B value="0.78571" />
  <C value="41.584" />
  <D value="9100.4" />
  <Tmin units="K" value="366.97" />
  <Tmax units="K" value="1000" />
  </VaporViscosity>
<LiquidThermalConductivity name="Liquid thermal conductivity" units="W/m/K">
  <eqno value="16" />
  <A value="-0.13174" />
  <B value="16.987" />
  <C value="-1.2513" />
  <D value="-0.000050242" />
  <E value="-0.000001447" />
  <Tmin units="K" value="160.8" />
  <Tmax units="K" value="420.8" />
  </LiquidThermalConductivity>
<VaporThermalConductivity name="Vapour thermal conductivity" units="W/m/K">
  <eqno value="102" />
  <A value="0.00002407" />
  <B value="1.1842" />
  <C value="65.04" />
  <D value="40153" />
  <Tmin units="K" value="181.15" />
  <Tmax units="K" value="1000" />
  </VaporThermalConductivity>
<SurfaceTension name="Surface tension" units="N/m">
  <eqno value="16" />
  <A value="-0.010113" />
  <B value="61.945" />
  <C value="-3.4261" />
  <D value="0.0012947" />
  <E value="-0.0000069057" />
  <Tmin units="K" value="181.15" />
  <Tmax units="K" value="536" />
  </SurfaceTension>
<RPPHeatCapacityCp name="Ideal gas heat capacity (RPP)" units="J/kmol/K">
  <eqno value="4" />
  <A value="6738" />
  <B value="536.06" />
  <C value="-0.27187" />
  <D value="0.000047059" />
  <Tmin units="K" value="273" />
  <Tmax units="K" value="1500" />
  </RPPHeatCapacityCp>
<AntoineVaporPressure name="Antoine" units="Pa">
  <eqno value="10" />
  <A value="21.122" />
  <B value="2983.4" />
  <C value="-56.28" />
  <Tmin units="K" value="330.56" />
  <Tmax units="K" value="479.97" />
  </AntoineVaporPressure>
<LiquidViscosityRPS name="Liquid viscosity (RPS)" units="Pa.s">
  <eqno value="12" />
  <A value="-2.9306" />
  <B value="-0.015656" />
  <Tmin units="K" value="181.15" />
  <Tmax units="K" value="366.97" />
  </LiquidViscosityRPS>
<COSTALDVolume name="COSTLD characteristic volume (V*)" units="m3/kmol" value="0.368168" />
<DiameterLJ name="Lennard Jones diameter" units="m" value="6.438977E-10" />
<EnergyLJ name="Lennard Jones energy" units="K" value="329.5296" />
<RacketParameter name="Rackett parameter" units="_" value="0.273" />
<FullerVolume name="Fuller et al. diffusion volume" units="_" value="131.54" />
<MatthiasCopemanC2 name="Mathias-Copeman C2" units="_" value="-0.78288" />
<Parachor name="Parachor" units="kg0.25.m3/s0.5/kmol" value="0.0496357" />
<SpecificGravity name="Specific gravity" units="_" value="0.791941" />
<Charge name="Charge" units="_" value="0" />
<CostaldAcentricFactor name="SRK acentric factor" units="_" value="0.358" />
<WilsonVolume name="Wilson volume" units="m3/kmol" value="0.130251" />
<UniquacR name="UNIQUAC r" units="_" value="4.7403" />
<UniquacQ name="UNIQUAC q" units="_" value="4.192" />
<MatthiasCopemanC3 name="Mathias-Copeman C3" units="_" value="1.50681" />
<ChaoSeaderAcentricFactor name="Chao-Seader acentric factor" units="_" value="0.358" />
<ChaoSeaderSolubilityParameter name="Chao-Seader solubility parameter" units="J0.5/m1.5" value="16460" />
<ChaoSeaderLiquidVolume name="Chao-Seader liquid volume" units="m3/kmol" value="0.130251" />
<UnifacVLE name="UNIFAC">
  <group id="1" value="1" />
  <group id="2" value="2" />
  <group id="5" value="1" />
  <group id="26" value="1" />
  </UnifacVLE>
<UnifacLLE name="UNIFAC-LLE">
  <group id="1" value="1" />
  <group id="2" value="2" />
  <group id="5" value="1" />
  <group id="28" value="1" />
  </UnifacLLE>
<Asog name="ASOG">
  <group id="1" value="1" />
  <group id="2" value="3" />
  <group id="5" value="1" />
  <group id="19" value="1" />
  </Asog>
<Umr name="UMR">
  <group id="1" value="1" />
  <group id="2" value="2" />
  <group id="5" value="1" />
  <group id="26" value="1" />
  </Umr>
<ModifiedUnifac name="Modified UNIFAC">
  <group id="1" value="1" />
  <group id="2" value="2" />
  <group id="5" value="1" />
  <group id="25" value="1" />
  </ModifiedUnifac>
<CAS name="CAS number" value="111-34-2" />
<Smiles name="SMILES" value="CCCCOC=C" />
</compound>

