<compound>
<LibraryIndex name="Index" value="909" />
<CompoundID name="Name" value="carbon dioxide" />
<StructureFormula name="Structure" value="OCO" />
<Family name="Family" value="24" />
<CriticalTemperature name="Critical temperature" units="K" value="304.21" />
<CriticalPressure name="Critical pressure" units="Pa" value="7383000" />
<CriticalVolume name="Critical volume" units="m3/kmol" value="0.094" />
<CriticalCompressibility name="Critical compressibility factor" units="_" value="0.274" />
<NormalBoilingPointTemperature name="Normal boiling point" units="K" value="194.686" />
<NormalMeltingPointTemperature name="Melting point" units="K" value="216.58" />
<TriplePointTemperature name="Triple point temperature" units="K" value="216.58" />
<TriplePointPressure name="Triple point pressure" units="Pa" value="518672" />
<MolecularWeight name="Molecular weight" units="kg/kmol" value="44.0095" />
<LiquidVolumeAtNormalBoilingPoint name="Liquid molar volume at normal boiling point" units="m3/kmol" value="0.0616782" />
<AcentricityFactor name="Acentric factor" units="_" value="0.223621" />
<RadiusOfGyration name="Radius of gyration" units="m" value="1.04E-10" />
<SolubilityParameter name="Solubility parameter" units="J0.5/m1.5" value="14560" />
<DipoleMoment name="Dipole moment" units="Coulomb.m" value="0" />
<VanDerWaalsVolume name="Van der Waals volume" units="m3/kmol" value="0.0197" />
<VanDerWaalsArea name="Van der Waals area" units="m2/kmol" value="3.23E+08" />
<HeatOfFormation name="IG heat of formation" units="J/kmol" value="-3.9351E+08" />
<GibbsEnergyOfFormation name="IG Gibbs energy of formation" units="J/kmol" value="-3.9437E+08" />
<AbsEntropy name="IG absolute entropy" units="J/kmol/K" value="213677" />
<HeatOfFusionAtMeltingPoint name="Heat of fusion at melting point" units="J/kmol" value="9019000" />
<MatthiasCopemanC1 name="Mathias-Copeman C1" units="_" value="0.8255" />
<HeatOfCombustion name="Standard net heat of combustion LHV" units="J/kmol" value="0" />
<SolidDensity name="Solid density" units="kmol/m3">
  <eqno value="2" />
  <A value="42.04" />
  <B value="-0.034421" />
  <C value="-0.0002847" />
  <Tmin units="K" value="143.1" />
  <Tmax units="K" value="216.58" />
  </SolidDensity>
<LiquidDensity name="Liquid density" units="kmol/m3">
  <eqno value="105" />
  <A value="2.768" />
  <B value="0.26212" />
  <C value="304.21" />
  <D value="0.2908" />
  <Tmin units="K" value="216.58" />
  <Tmax units="K" value="304.21" />
  </LiquidDensity>
<VaporPressure name="Vapour pressure" units="Pa">
  <eqno value="101" />
  <A value="95.478" />
  <B value="-4070" />
  <C value="-12.07" />
  <D value="0.000029505" />
  <E value="2" />
  <Tmin units="K" value="216.4" />
  <Tmax units="K" value="304.21" />
  </VaporPressure>
<HeatOfVaporization name="Heat of vaporization" units="J/kmol">
  <eqno value="106" />
  <A value="2.1092E+07" />
  <B value="0.35366" />
  <C value="-0.46134" />
  <D value="0.43554" />
  <E value="0.037671" />
  <Tmin units="K" value="216.58" />
  <Tmax units="K" value="304.21" />
  </HeatOfVaporization>
<SolidHeatCapacityCp name="Solid heat capacity" units="J/kmol/K">
  <eqno value="100" />
  <A value="-18283" />
  <B value="1360.3" />
  <C value="-12.153" />
  <D value="0.051584" />
  <E value="-0.000076997" />
  <Tmin units="K" value="25" />
  <Tmax units="K" value="216.58" />
  </SolidHeatCapacityCp>
<LiquidHeatCapacityCp name="Liquid heat capacity" units="J/kmol/K">
  <eqno value="16" />
  <A value="80592" />
  <B value="108.83" />
  <C value="-6.9126" />
  <D value="0.059647" />
  <E value="0.0000069922" />
  <Tmin units="K" value="216.58" />
  <Tmax units="K" value="290" />
  </LiquidHeatCapacityCp>
<IdealGasHeatCapacityCp name="Ideal gas heat capacity" units="J/kmol/K">
  <eqno value="16" />
  <A value="28933" />
  <B value="-494.28" />
  <C value="10.658" />
  <D value="-0.000027375" />
  <E value="3.3268E-09" />
  <Tmin units="K" value="50" />
  <Tmax units="K" value="2000" />
  </IdealGasHeatCapacityCp>
<SecondVirialCoefficient name="Second virial coefficient" units="m3/kmol">
  <eqno value="104" />
  <A value="0.05255" />
  <B value="-35.057" />
  <C value="-1.6557" />
  <D value="121.54" />
  <E value="-254.34" />
  <Tmin units="K" value="152.1" />
  <Tmax units="K" value="1773.15" />
  </SecondVirialCoefficient>
<LiquidViscosity name="Liquid viscosity" units="Pa.s">
  <eqno value="101" />
  <A value="-7.7022" />
  <B value="-166.34" />
  <C value="0.38094" />
  <D value="-0.00004018" />
  <E value="2" />
  <Tmin units="K" value="216.58" />
  <Tmax units="K" value="303.15" />
  </LiquidViscosity>
<VaporViscosity name="Vapour viscosity" units="Pa.s">
  <eqno value="102" />
  <A value="0.0000022464" />
  <B value="0.45495" />
  <C value="292.64" />
  <D value="1669.1" />
  <Tmin units="K" value="170" />
  <Tmax units="K" value="1900" />
  </VaporViscosity>
<LiquidThermalConductivity name="Liquid thermal conductivity" units="W/m/K">
  <eqno value="16" />
  <A value="-0.24975" />
  <B value="-55.106" />
  <C value="0.41735" />
  <D value="-0.0051067" />
  <E value="0.0000020157" />
  <Tmin units="K" value="216.58" />
  <Tmax units="K" value="300" />
  </LiquidThermalConductivity>
<VaporThermalConductivity name="Vapour thermal conductivity" units="W/m/K">
  <eqno value="102" />
  <A value="5.804" />
  <B value="-0.44522" />
  <C value="794.13" />
  <D value="2139600" />
  <Tmin units="K" value="180" />
  <Tmax units="K" value="1500" />
  </VaporThermalConductivity>
<SurfaceTension name="Surface tension" units="N/m">
  <eqno value="16" />
  <A value="-0.011629" />
  <B value="-183.67" />
  <C value="0.069773" />
  <D value="-0.012408" />
  <E value="-0.0000018232" />
  <Tmin units="K" value="216.58" />
  <Tmax units="K" value="304.21" />
  </SurfaceTension>
<RPPHeatCapacityCp name="Ideal gas heat capacity (RPP)" units="J/kmol/K">
  <eqno value="4" />
  <A value="19800" />
  <B value="73.44" />
  <C value="-0.05602" />
  <D value="0.00001715" />
  <Tmin units="K" value="250" />
  <Tmax units="K" value="1200" />
  </RPPHeatCapacityCp>
<RelativeStaticPermittivity name="Relative static permittivity" units="_">
  <eqno value="120" />
  <A value="-1.381181" />
  <B value="-800" />
  <C value="-4.8" />
  <Tmin units="K" value="254.15" />
  <Tmax units="K" value="424.15" />
  </RelativeStaticPermittivity>
<AntoineVaporPressure name="Antoine" units="Pa">
  <eqno value="10" />
  <A value="21.794" />
  <B value="1725.4" />
  <C value="-16.793" />
  <Tmin units="K" value="216.73" />
  <Tmax units="K" value="271.93" />
  </AntoineVaporPressure>
<LiquidViscosityRPS name="Liquid viscosity (RPS)" units="Pa.s">
  <eqno value="13" />
  <A value="-8.3078" />
  <B value="0.012091" />
  <C value="-0.000055826" />
  <Tmin units="K" value="216.58" />
  <Tmax units="K" value="303.15" />
  </LiquidViscosityRPS>
<COSTALDVolume name="COSTLD characteristic volume (V*)" units="m3/kmol" value="0.104698" />
<DiameterLJ name="Lennard Jones diameter" units="m" value="4.011624E-10" />
<EnergyLJ name="Lennard Jones energy" units="K" value="187.9268" />
<RacketParameter name="Rackett parameter" units="_" value="0.270937" />
<FullerVolume name="Fuller et al. diffusion volume" units="_" value="26.9" />
<MatthiasCopemanC2 name="Mathias-Copeman C2" units="_" value="0.16755" />
<Parachor name="Parachor" units="kg0.25.m3/s0.5/kmol" value="0.0132" />
<SpecificGravity name="Specific gravity" units="_" value="0.825335" />
<Charge name="Charge" units="_" value="0" />
<CostaldAcentricFactor name="SRK acentric factor" units="_" value="0.231" />
<WilsonVolume name="Wilson volume" units="m3/kmol" value="0.0372744" />
<UniquacR name="UNIQUAC r" units="_" value="1.2986" />
<UniquacQ name="UNIQUAC q" units="_" value="1.292" />
<ApiSrkS2 name="API-SRK s2" units="_" value="-0.004474" />
<MatthiasCopemanC3 name="Mathias-Copeman C3" units="_" value="-1.7039" />
<ChaoSeaderAcentricFactor name="Chao-Seader acentric factor" units="_" value="0.231" />
<ChaoSeaderSolubilityParameter name="Chao-Seader solubility parameter" units="J0.5/m1.5" value="14563.8" />
<ChaoSeaderLiquidVolume name="Chao-Seader liquid volume" units="m3/kmol" value="0.0372744" />
<GCmethod name="PPR78">
  <group id="12" value="1" />
  </GCmethod>
<Umr name="UMR">
  <group id="215" value="1" />
  </Umr>
<CAS name="CAS number" value="124-38-9" />
<Smiles name="SMILES" value="O=C=O" />
</compound>

