<compound>
<LibraryIndex name="Index" value="1938" />
<CompoundID name="Name" value="carbon disulfide" />
<StructureFormula name="Structure" value="SCS" />
<Family name="Family" value="42" />
<CriticalTemperature name="Critical temperature" units="K" value="552" />
<CriticalPressure name="Critical pressure" units="Pa" value="7900000" />
<CriticalVolume name="Critical volume" units="m3/kmol" value="0.16" />
<CriticalCompressibility name="Critical compressibility factor" units="_" value="0.275" />
<NormalBoilingPointTemperature name="Normal boiling point" units="K" value="319.375" />
<NormalMeltingPointTemperature name="Melting point" units="K" value="161.58" />
<TriplePointTemperature name="Triple point temperature" units="K" value="161.11" />
<TriplePointPressure name="Triple point pressure" units="Pa" value="1.4944" />
<MolecularWeight name="Molecular weight" units="kg/kmol" value="76.1407" />
<LiquidVolumeAtNormalBoilingPoint name="Liquid molar volume at normal boiling point" units="m3/kmol" value="0.0606387" />
<AcentricityFactor name="Acentric factor" units="_" value="0.110697" />
<RadiusOfGyration name="Radius of gyration" units="m" value="1.569E-10" />
<SolubilityParameter name="Solubility parameter" units="J0.5/m1.5" value="20400" />
<DipoleMoment name="Dipole moment" units="Coulomb.m" value="0" />
<VanDerWaalsVolume name="Van der Waals volume" units="m3/kmol" value="0.0312" />
<VanDerWaalsArea name="Van der Waals area" units="m2/kmol" value="4.75366E+08" />
<HeatOfFormation name="IG heat of formation" units="J/kmol" value="1.169E+08" />
<GibbsEnergyOfFormation name="IG Gibbs energy of formation" units="J/kmol" value="6.68E+07" />
<AbsEntropy name="IG absolute entropy" units="J/kmol/K" value="237900" />
<HeatOfFusionAtMeltingPoint name="Heat of fusion at melting point" units="J/kmol" value="4393000" />
<MatthiasCopemanC1 name="Mathias-Copeman C1" units="_" value="0.66599" />
<HeatOfCombustion name="Standard net heat of combustion LHV" units="J/kmol" value="-1.0769E+09" />
<SolidDensity name="Solid density" units="kmol/m3">
  <eqno value="2" />
  <A value="20.411" />
  <B value="-1.6913E-08" />
  <Tmin units="K" value="157.45" />
  <Tmax units="K" value="166.95" />
  </SolidDensity>
<LiquidDensity name="Liquid density" units="kmol/m3">
  <eqno value="105" />
  <A value="1.7976" />
  <B value="0.28757" />
  <C value="552" />
  <D value="0.32269" />
  <Tmin units="K" value="161.11" />
  <Tmax units="K" value="552" />
  </LiquidDensity>
<VaporPressure name="Vapour pressure" units="Pa">
  <eqno value="101" />
  <A value="52.62041" />
  <B value="-4546.02" />
  <C value="-4.744246" />
  <D value="4.881551E-06" />
  <E value="2" />
  <Tmin units="K" value="161.11" />
  <Tmax units="K" value="552" />
  </VaporPressure>
<HeatOfVaporization name="Heat of vaporization" units="J/kmol">
  <eqno value="106" />
  <A value="3.9758E+07" />
  <B value="0.68679" />
  <C value="0.18227" />
  <D value="-1.7985" />
  <E value="1.3658" />
  <Tmin units="K" value="161.11" />
  <Tmax units="K" value="552" />
  </HeatOfVaporization>
<SolidHeatCapacityCp name="Solid heat capacity" units="J/kmol/K">
  <eqno value="100" />
  <A value="-11237" />
  <B value="1443.9" />
  <C value="-14.995" />
  <D value="0.077354" />
  <E value="-0.00014378" />
  <Tmin units="K" value="15" />
  <Tmax units="K" value="160" />
  </SolidHeatCapacityCp>
<LiquidHeatCapacityCp name="Liquid heat capacity" units="J/kmol/K">
  <eqno value="16" />
  <A value="69032" />
  <B value="671.75" />
  <C value="2.3423" />
  <D value="0.015972" />
  <E value="-0.0000043479" />
  <Tmin units="K" value="161.11" />
  <Tmax units="K" value="552" />
  </LiquidHeatCapacityCp>
<IdealGasHeatCapacityCp name="Ideal gas heat capacity" units="J/kmol/K">
  <eqno value="16" />
  <A value="26779" />
  <B value="-222.87" />
  <C value="10.557" />
  <D value="0.00011062" />
  <E value="-5.3772E-08" />
  <Tmin units="K" value="100" />
  <Tmax units="K" value="1500" />
  </IdealGasHeatCapacityCp>
<SecondVirialCoefficient name="Second virial coefficient" units="m3/kmol">
  <eqno value="104" />
  <A value="0.098838" />
  <B value="-139" />
  <C value="-11.954" />
  <D value="1024.2" />
  <E value="-2823.7" />
  <Tmin units="K" value="276" />
  <Tmax units="K" value="1932" />
  </SecondVirialCoefficient>
<LiquidViscosity name="Liquid viscosity" units="Pa.s">
  <eqno value="101" />
  <A value="-9.8702" />
  <B value="691.26" />
  <C value="-0.072299" />
  <D value="1.6489E-07" />
  <E value="2" />
  <Tmin units="K" value="161.58" />
  <Tmax units="K" value="441.6" />
  </LiquidViscosity>
<VaporViscosity name="Vapour viscosity" units="Pa.s">
  <eqno value="102" />
  <A value="5.9681E-08" />
  <B value="0.92304" />
  <C value="48.01" />
  <D value="-162.47" />
  <Tmin units="K" value="161.11" />
  <Tmax units="K" value="800" />
  </VaporViscosity>
<LiquidThermalConductivity name="Liquid thermal conductivity" units="W/m/K">
  <eqno value="16" />
  <A value="0.12378" />
  <B value="-150.01" />
  <C value="-0.453" />
  <D value="-0.0078739" />
  <E value="-0.0000032002" />
  <Tmin units="K" value="161.11" />
  <Tmax units="K" value="319.37" />
  </LiquidThermalConductivity>
<VaporThermalConductivity name="Vapour thermal conductivity" units="W/m/K">
  <eqno value="102" />
  <A value="0.00033762" />
  <B value="0.73827" />
  <C value="483.3" />
  <D value="-4769.2" />
  <Tmin units="K" value="161.11" />
  <Tmax units="K" value="1000" />
  </VaporThermalConductivity>
<SurfaceTension name="Surface tension" units="N/m">
  <eqno value="16" />
  <A value="-0.015366" />
  <B value="31.596" />
  <C value="-2.7768" />
  <D value="0.00031369" />
  <E value="-0.0000054115" />
  <Tmin units="K" value="161.11" />
  <Tmax units="K" value="552" />
  </SurfaceTension>
<RPPHeatCapacityCp name="Ideal gas heat capacity (RPP)" units="J/kmol/K">
  <eqno value="4" />
  <A value="23177" />
  <B value="96.491" />
  <C value="-0.087795" />
  <D value="0.000027305" />
  <Tmin units="K" value="100" />
  <Tmax units="K" value="1500" />
  </RPPHeatCapacityCp>
<RelativeStaticPermittivity name="Relative static permittivity" units="_">
  <eqno value="120" />
  <A value="-1.955809" />
  <B value="-1300" />
  <C value="-7.8" />
  <Tmin units="K" value="274.15" />
  <Tmax units="K" value="444.15" />
  </RelativeStaticPermittivity>
<AntoineVaporPressure name="Antoine" units="Pa">
  <eqno value="10" />
  <A value="21.694" />
  <B value="3154.6" />
  <C value="-9.3773" />
  <Tmin units="K" value="336.03" />
  <Tmax units="K" value="495.95" />
  </AntoineVaporPressure>
<LiquidViscosityRPS name="Liquid viscosity (RPS)" units="Pa.s">
  <eqno value="13" />
  <A value="-2.3517" />
  <B value="-0.028388" />
  <C value="0.000032128" />
  <Tmin units="K" value="161.58" />
  <Tmax units="K" value="441.6" />
  </LiquidViscosityRPS>
<COSTALDVolume name="COSTLD characteristic volume (V*)" units="m3/kmol" value="0.16899" />
<DiameterLJ name="Lennard Jones diameter" units="m" value="4.768909E-10" />
<EnergyLJ name="Lennard Jones energy" units="K" value="345.5016" />
<FullerVolume name="Fuller et al. diffusion volume" units="_" value="61.7" />
<MatthiasCopemanC2 name="Mathias-Copeman C2" units="_" value="-0.05841" />
<Parachor name="Parachor" units="kg0.25.m3/s0.5/kmol" value="0.0256" />
<SpecificGravity name="Specific gravity" units="_" value="1.26931" />
<Charge name="Charge" units="_" value="0" />
<CostaldAcentricFactor name="SRK acentric factor" units="_" value="0.1035" />
<WilsonVolume name="Wilson volume" units="m3/kmol" value="0.0606387" />
<UniquacR name="UNIQUAC r" units="_" value="2.057" />
<UniquacQ name="UNIQUAC q" units="_" value="1.65" />
<MatthiasCopemanC3 name="Mathias-Copeman C3" units="_" value="-0.21329" />
<ChaoSeaderAcentricFactor name="Chao-Seader acentric factor" units="_" value="0.107865" />
<ChaoSeaderSolubilityParameter name="Chao-Seader solubility parameter" units="J0.5/m1.5" value="20410.7" />
<ChaoSeaderLiquidVolume name="Chao-Seader liquid volume" units="m3/kmol" value="0.0606387" />
<UnifacVLE name="UNIFAC">
  <group id="59" value="1" />
  </UnifacVLE>
<GCmethod name="PPR78">
  <group id="59" value="1" />
  </GCmethod>
<Umr name="UMR">
  <group id="59" value="1" />
  </Umr>
<ModifiedUnifac name="Modified UNIFAC">
  <group id="58" value="1" />
  </ModifiedUnifac>
<CAS name="CAS number" value="75-15-0" />
<Smiles name="SMILES" value="S=C=S" />
</compound>

