<compound>
<LibraryIndex name="Index" value="1521" />
<CompoundID name="Name" value="chloroform" />
<StructureFormula name="Structure" value="CHCl3" />
<Family name="Family" value="65" />
<CriticalTemperature name="Critical temperature" units="K" value="536.5" />
<CriticalPressure name="Critical pressure" units="Pa" value="5500000" />
<CriticalVolume name="Critical volume" units="m3/kmol" value="0.24" />
<CriticalCompressibility name="Critical compressibility factor" units="_" value="0.296" />
<NormalBoilingPointTemperature name="Normal boiling point" units="K" value="334.33" />
<NormalMeltingPointTemperature name="Melting point" units="K" value="209.63" />
<TriplePointTemperature name="Triple point temperature" units="K" value="209.63" />
<TriplePointPressure name="Triple point pressure" units="Pa" value="68.1479" />
<MolecularWeight name="Molecular weight" units="kg/kmol" value="119.3776" />
<LiquidVolumeAtNormalBoilingPoint name="Liquid molar volume at normal boiling point" units="m3/kmol" value="0.08068" />
<AcentricityFactor name="Acentric factor" units="_" value="0.226" />
<RadiusOfGyration name="Radius of gyration" units="m" value="3.249E-10" />
<SolubilityParameter name="Solubility parameter" units="J0.5/m1.5" value="18920" />
<DipoleMoment name="Dipole moment" units="Coulomb.m" value="3.37E-30" />
<VanDerWaalsVolume name="Van der Waals volume" units="m3/kmol" value="0.0435" />
<VanDerWaalsArea name="Van der Waals area" units="m2/kmol" value="6.03E+08" />
<HeatOfFormation name="IG heat of formation" units="J/kmol" value="-1.029E+08" />
<GibbsEnergyOfFormation name="IG Gibbs energy of formation" units="J/kmol" value="-7.01E+07" />
<AbsEntropy name="IG absolute entropy" units="J/kmol/K" value="295600" />
<HeatOfFusionAtMeltingPoint name="Heat of fusion at melting point" units="J/kmol" value="9540000" />
<MatthiasCopemanC1 name="Mathias-Copeman C1" units="_" value="0.80821" />
<HeatOfCombustion name="Standard net heat of combustion LHV" units="J/kmol" value="-3.8E+08" />
<SolidDensity name="Solid density" units="kmol/m3">
  <eqno value="2" />
  <A value="15.968" />
  <B value="-0.0028604" />
  <Tmin units="K" value="173.15" />
  <Tmax units="K" value="209.63" />
  </SolidDensity>
<LiquidDensity name="Liquid density" units="kmol/m3">
  <eqno value="105" />
  <A value="0.53556" />
  <B value="0.18404" />
  <C value="536.5" />
  <D value="0.18541" />
  <Tmin units="K" value="209" />
  <Tmax units="K" value="535.95" />
  </LiquidDensity>
<VaporPressure name="Vapour pressure" units="Pa">
  <eqno value="101" />
  <A value="99.91512" />
  <B value="-6781.559" />
  <C value="-11.93873" />
  <D value="0.0000115883" />
  <E value="2" />
  <Tmin units="K" value="207.15" />
  <Tmax units="K" value="536.4" />
  </VaporPressure>
<HeatOfVaporization name="Heat of vaporization" units="J/kmol">
  <eqno value="106" />
  <A value="5.1382E+07" />
  <B value="0.7027" />
  <C value="0.36748" />
  <D value="-1.351" />
  <E value="0.69236" />
  <Tmin units="K" value="209.63" />
  <Tmax units="K" value="536.4" />
  </HeatOfVaporization>
<SolidHeatCapacityCp name="Solid heat capacity" units="J/kmol/K">
  <eqno value="1" />
  <A value="92520" />
  <Tmin units="K" value="283" />
  <Tmax units="K" value="0" />
  </SolidHeatCapacityCp>
<LiquidHeatCapacityCp name="Liquid heat capacity" units="J/kmol/K">
  <eqno value="16" />
  <A value="93132" />
  <B value="645.44" />
  <C value="2.3739" />
  <D value="0.024457" />
  <E value="-0.000021097" />
  <Tmin units="K" value="233.15" />
  <Tmax units="K" value="366.48" />
  </LiquidHeatCapacityCp>
<IdealGasHeatCapacityCp name="Ideal gas heat capacity" units="J/kmol/K">
  <eqno value="16" />
  <A value="36659" />
  <B value="-308.1" />
  <C value="11.299" />
  <D value="0.00003137" />
  <E value="-3.3538E-08" />
  <Tmin units="K" value="100" />
  <Tmax units="K" value="1500" />
  </IdealGasHeatCapacityCp>
<SecondVirialCoefficient name="Second virial coefficient" units="m3/kmol">
  <eqno value="104" />
  <A value="0.13849" />
  <B value="-177.09" />
  <C value="-16.939" />
  <D value="-624.1" />
  <E value="-99.389" />
  <Tmin units="K" value="252" />
  <Tmax units="K" value="2000" />
  </SecondVirialCoefficient>
<LiquidViscosity name="Liquid viscosity" units="Pa.s">
  <eqno value="101" />
  <A value="-20.923" />
  <B value="1248.9" />
  <C value="1.655" />
  <D value="-0.0000024787" />
  <E value="2" />
  <Tmin units="K" value="209.63" />
  <Tmax units="K" value="436" />
  </LiquidViscosity>
<VaporViscosity name="Vapour viscosity" units="Pa.s">
  <eqno value="102" />
  <A value="1.8024E-07" />
  <B value="0.76204" />
  <C value="109.36" />
  <D value="-1373.9" />
  <Tmin units="K" value="209.63" />
  <Tmax units="K" value="1000" />
  </VaporViscosity>
<LiquidThermalConductivity name="Liquid thermal conductivity" units="W/m/K">
  <eqno value="16" />
  <A value="0.061417" />
  <B value="-66.692" />
  <C value="-1.6802" />
  <D value="-0.001962" />
  <E value="-0.0000044192" />
  <Tmin units="K" value="209.63" />
  <Tmax units="K" value="400" />
  </LiquidThermalConductivity>
<VaporThermalConductivity name="Vapour thermal conductivity" units="W/m/K">
  <eqno value="102" />
  <A value="0.00041167" />
  <B value="0.84476" />
  <C value="1870.6" />
  <D value="-7829.5" />
  <Tmin units="K" value="209.63" />
  <Tmax units="K" value="1000" />
  </VaporThermalConductivity>
<SurfaceTension name="Surface tension" units="N/m">
  <eqno value="16" />
  <A value="-0.012805" />
  <B value="80.496" />
  <C value="-3.4786" />
  <D value="0.0022559" />
  <E value="-0.0000078228" />
  <Tmin units="K" value="209.63" />
  <Tmax units="K" value="536.4" />
  </SurfaceTension>
<RPPHeatCapacityCp name="Ideal gas heat capacity (RPP)" units="J/kmol/K">
  <eqno value="100" />
  <A value="19863" />
  <B value="217.99" />
  <C value="-0.26149" />
  <D value="0.0001544" />
  <E value="-3.517E-08" />
  <Tmin units="K" value="200" />
  <Tmax units="K" value="1000" />
  </RPPHeatCapacityCp>
<RelativeStaticPermittivity name="Relative static permittivity" units="_">
  <eqno value="120" />
  <A value="-5.214982" />
  <B value="-2750" />
  <C value="-16.5" />
  <Tmin units="K" value="254.15" />
  <Tmax units="K" value="424.15" />
  </RelativeStaticPermittivity>
<AntoineVaporPressure name="Antoine" units="Pa">
  <eqno value="10" />
  <A value="21.534" />
  <B value="3077.4" />
  <C value="-26.818" />
  <Tmin units="K" value="322.04" />
  <Tmax units="K" value="480.55" />
  </AntoineVaporPressure>
<LiquidViscosityRPS name="Liquid viscosity (RPS)" units="Pa.s">
  <eqno value="13" />
  <A value="-0.33836" />
  <B value="-0.03791" />
  <C value="0.000046198" />
  <Tmin units="K" value="209.63" />
  <Tmax units="K" value="353.2" />
  </LiquidViscosityRPS>
<COSTALDVolume name="COSTLD characteristic volume (V*)" units="m3/kmol" value="0.22663" />
<DiameterLJ name="Lennard Jones diameter" units="m" value="5.31E-10" />
<EnergyLJ name="Lennard Jones energy" units="K" value="355" />
<FullerVolume name="Fuller et al. diffusion volume" units="_" value="81.21" />
<MatthiasCopemanC2 name="Mathias-Copeman C2" units="_" value="-0.02138" />
<Parachor name="Parachor" units="kg0.25.m3/s0.5/kmol" value="0.0326" />
<SpecificGravity name="Specific gravity" units="_" value="1.49815" />
<Charge name="Charge" units="_" value="0" />
<CostaldAcentricFactor name="SRK acentric factor" units="_" value="0.21796" />
<WilsonVolume name="Wilson volume" units="m3/kmol" value="0.0805048" />
<UniquacR name="UNIQUAC r" units="_" value="2.7" />
<UniquacQ name="UNIQUAC q" units="_" value="2.34" />
<UniquacQP name="UNIQUAC q'" units="_" value="2.34" />
<MatthiasCopemanC3 name="Mathias-Copeman C3" units="_" value="0.0529" />
<ChaoSeaderAcentricFactor name="Chao-Seader acentric factor" units="_" value="0.2059" />
<ChaoSeaderSolubilityParameter name="Chao-Seader solubility parameter" units="J0.5/m1.5" value="18919.5" />
<ChaoSeaderLiquidVolume name="Chao-Seader liquid volume" units="m3/kmol" value="0.0805048" />
<UnifacVLE name="UNIFAC">
  <group id="51" value="1" />
  </UnifacVLE>
<UnifacLLE name="UNIFAC-LLE">
  <group id="37" value="1" />
  </UnifacLLE>
<Asog name="ASOG">
  <group id="39" value="1" />
  </Asog>
<GCmethod name="PPR78">
  <group id="51" value="1" />
  </GCmethod>
<Umr name="UMR">
  <group id="51" value="1" />
  </Umr>
<ModifiedUnifac name="Modified UNIFAC">
  <group id="50" value="1" />
  </ModifiedUnifac>
<CAS name="CAS number" value="67-66-3" />
<Smiles name="SMILES" value="C([Cl])([Cl])[Cl]" />
</compound>

