<compound>
<LibraryIndex name="Index" value="205" />
<CompoundID name="Name" value="cis-2-butene" />
<StructureFormula name="Structure" value="CH3CHCHCH3" />
<Family name="Family" value="10" />
<CriticalTemperature name="Critical temperature" units="K" value="435.5" />
<CriticalPressure name="Critical pressure" units="Pa" value="4210000" />
<CriticalVolume name="Critical volume" units="m3/kmol" value="0.2338" />
<CriticalCompressibility name="Critical compressibility factor" units="_" value="0.269" />
<NormalBoilingPointTemperature name="Normal boiling point" units="K" value="276.87" />
<NormalMeltingPointTemperature name="Melting point" units="K" value="134.26" />
<TriplePointTemperature name="Triple point temperature" units="K" value="134.26" />
<TriplePointPressure name="Triple point pressure" units="Pa" value="0.272" />
<MolecularWeight name="Molecular weight" units="kg/kmol" value="56.10632" />
<LiquidVolumeAtNormalBoilingPoint name="Liquid molar volume at normal boiling point" units="m3/kmol" value="0.09101" />
<AcentricityFactor name="Acentric factor" units="_" value="0.203" />
<RadiusOfGyration name="Radius of gyration" units="m" value="2.833E-10" />
<SolubilityParameter name="Solubility parameter" units="J0.5/m1.5" value="14720" />
<DipoleMoment name="Dipole moment" units="Coulomb.m" value="1.0E-30" />
<VanDerWaalsVolume name="Van der Waals volume" units="m3/kmol" value="0.04428" />
<VanDerWaalsArea name="Van der Waals area" units="m2/kmol" value="6.4E+08" />
<HeatOfFormation name="IG heat of formation" units="J/kmol" value="-7400000" />
<GibbsEnergyOfFormation name="IG Gibbs energy of formation" units="J/kmol" value="6.536E+07" />
<AbsEntropy name="IG absolute entropy" units="J/kmol/K" value="301200" />
<HeatOfFusionAtMeltingPoint name="Heat of fusion at melting point" units="J/kmol" value="7309400" />
<MatthiasCopemanC1 name="Mathias-Copeman C1" units="_" value="0.79077" />
<HeatOfCombustion name="Standard net heat of combustion LHV" units="J/kmol" value="-2.5339E+09" />
<SolidDensity name="Solid density" units="kmol/m3">
  <eqno value="2" />
  <A value="17.618" />
  <B value="-0.014457" />
  <Tmin units="K" value="53.7" />
  <Tmax units="K" value="134.26" />
  </SolidDensity>
<LiquidDensity name="Liquid density" units="kmol/m3">
  <eqno value="105" />
  <A value="1.1591" />
  <B value="0.27085" />
  <C value="435.5" />
  <D value="0.28116" />
  <Tmin units="K" value="134.26" />
  <Tmax units="K" value="435.5" />
  </LiquidDensity>
<VaporPressure name="Vapour pressure" units="Pa">
  <eqno value="101" />
  <A value="82.92441" />
  <B value="-5022.628" />
  <C value="-9.652369" />
  <D value="0.0000133961" />
  <E value="2" />
  <Tmin units="K" value="134.26" />
  <Tmax units="K" value="435.58" />
  </VaporPressure>
<HeatOfVaporization name="Heat of vaporization" units="J/kmol">
  <eqno value="106" />
  <A value="3.4358E+07" />
  <B value="0.38004" />
  <C value="0" />
  <D value="0" />
  <E value="0" />
  <Tmin units="K" value="134.26" />
  <Tmax units="K" value="435.5" />
  </HeatOfVaporization>
<SolidHeatCapacityCp name="Solid heat capacity" units="J/kmol/K">
  <eqno value="100" />
  <A value="-11156" />
  <B value="837.19" />
  <C value="4.9352" />
  <D value="-0.095117" />
  <E value="0.00037586" />
  <Tmin units="K" value="15" />
  <Tmax units="K" value="134.26" />
  </SolidHeatCapacityCp>
<LiquidHeatCapacityCp name="Liquid heat capacity" units="J/kmol/K">
  <eqno value="16" />
  <A value="79532" />
  <B value="110.96" />
  <C value="9.7654" />
  <D value="-0.0036798" />
  <E value="0.000019578" />
  <Tmin units="K" value="133.15" />
  <Tmax units="K" value="366.48" />
  </LiquidHeatCapacityCp>
<IdealGasHeatCapacityCp name="Ideal gas heat capacity" units="J/kmol/K">
  <eqno value="16" />
  <A value="53149" />
  <B value="-719.47" />
  <C value="12.619" />
  <D value="-0.000047815" />
  <E value="4.5198E-10" />
  <Tmin units="K" value="150" />
  <Tmax units="K" value="1500" />
  </IdealGasHeatCapacityCp>
<SecondVirialCoefficient name="Second virial coefficient" units="m3/kmol">
  <eqno value="104" />
  <A value="0.13022" />
  <B value="-102.71" />
  <C value="-12.899" />
  <D value="-102.28" />
  <E value="-123.99" />
  <Tmin units="K" value="195" />
  <Tmax units="K" value="1959.98" />
  </SecondVirialCoefficient>
<LiquidViscosity name="Liquid viscosity" units="Pa.s">
  <eqno value="101" />
  <A value="-17.96838" />
  <B value="892.0637" />
  <C value="1.159883" />
  <D value="-2.883463E-06" />
  <E value="2" />
  <Tmin units="K" value="134.26" />
  <Tmax units="K" value="373" />
  </LiquidViscosity>
<VaporViscosity name="Vapour viscosity" units="Pa.s">
  <eqno value="102" />
  <A value="4.0697E-08" />
  <B value="0.91942" />
  <C value="-12.143" />
  <D value="1343.2" />
  <Tmin units="K" value="134.26" />
  <Tmax units="K" value="1000" />
  </VaporViscosity>
<LiquidThermalConductivity name="Liquid thermal conductivity" units="W/m/K">
  <eqno value="16" />
  <A value="-0.032373" />
  <B value="19.125" />
  <C value="-1.716" />
  <D value="0.00030408" />
  <E value="-0.0000042934" />
  <Tmin units="K" value="134.26" />
  <Tmax units="K" value="373.15" />
  </LiquidThermalConductivity>
<VaporThermalConductivity name="Vapour thermal conductivity" units="W/m/K">
  <eqno value="102" />
  <A value="0.000075196" />
  <B value="1.0578" />
  <C value="-53.701" />
  <D value="131760" />
  <Tmin units="K" value="134.26" />
  <Tmax units="K" value="1273.15" />
  </VaporThermalConductivity>
<SurfaceTension name="Surface tension" units="N/m">
  <eqno value="16" />
  <A value="-0.010924" />
  <B value="29.613" />
  <C value="-3.1507" />
  <D value="0.00043968" />
  <E value="-0.0000087176" />
  <Tmin units="K" value="134.26" />
  <Tmax units="K" value="435.5" />
  </SurfaceTension>
<RPPHeatCapacityCp name="Ideal gas heat capacity (RPP)" units="J/kmol/K">
  <eqno value="100" />
  <A value="30672" />
  <B value="159.5" />
  <C value="0.18541" />
  <D value="-0.00028485" />
  <E value="1.0443E-07" />
  <Tmin units="K" value="50" />
  <Tmax units="K" value="1000" />
  </RPPHeatCapacityCp>
<AntoineVaporPressure name="Antoine" units="Pa">
  <eqno value="10" />
  <A value="21.051" />
  <B value="2387.1" />
  <C value="-26.243" />
  <Tmin units="K" value="263.27" />
  <Tmax units="K" value="387.94" />
  </AntoineVaporPressure>
<LiquidViscosityRPS name="Liquid viscosity (RPS)" units="Pa.s">
  <eqno value="13" />
  <A value="-2.8527" />
  <B value="-0.034875" />
  <C value="0.000051621" />
  <Tmin units="K" value="134.26" />
  <Tmax units="K" value="333.15" />
  </LiquidViscosityRPS>
<COSTALDVolume name="COSTLD characteristic volume (V*)" units="m3/kmol" value="0.23104" />
<DiameterLJ name="Lennard Jones diameter" units="m" value="5.556787E-10" />
<EnergyLJ name="Lennard Jones energy" units="K" value="251.7732" />
<RacketParameter name="Rackett parameter" units="_" value="0.2705" />
<FullerVolume name="Fuller et al. diffusion volume" units="_" value="82.08" />
<MatthiasCopemanC2 name="Mathias-Copeman C2" units="_" value="0.05879" />
<Parachor name="Parachor" units="kg0.25.m3/s0.5/kmol" value="0.0315" />
<SpecificGravity name="Specific gravity" units="_" value="0.625953" />
<Charge name="Charge" units="_" value="0" />
<CostaldAcentricFactor name="SRK acentric factor" units="_" value="0.20385" />
<WilsonVolume name="Wilson volume" units="m3/kmol" value="0.0874127" />
<UniquacR name="UNIQUAC r" units="_" value="2.9189" />
<UniquacQ name="UNIQUAC q" units="_" value="2.563" />
<ApiSrkS2 name="API-SRK s2" units="_" value="-0.005287" />
<MatthiasCopemanC3 name="Mathias-Copeman C3" units="_" value="-0.28413" />
<ChaoSeaderAcentricFactor name="Chao-Seader acentric factor" units="_" value="0.2575" />
<ChaoSeaderSolubilityParameter name="Chao-Seader solubility parameter" units="J0.5/m1.5" value="13827.58" />
<ChaoSeaderLiquidVolume name="Chao-Seader liquid volume" units="m3/kmol" value="0.0912" />
<UnifacVLE name="UNIFAC">
  <group id="1" value="2" />
  <group id="6" value="1" />
  </UnifacVLE>
<UnifacLLE name="UNIFAC-LLE">
  <group id="1" value="2" />
  <group id="6" value="1" />
  </UnifacLLE>
<Asog name="ASOG">
  <group id="1" value="2" />
  <group id="6" value="1" />
  </Asog>
<GCmethod name="PPR78">
  <group id="1" value="2" />
  <group id="18" value="2" />
  </GCmethod>
<Umr name="UMR">
  <group id="1" value="2" />
  <group id="6" value="1" />
  </Umr>
<ModifiedUnifac name="Modified UNIFAC">
  <group id="1" value="2" />
  <group id="6" value="1" />
  </ModifiedUnifac>
<CAS name="CAS number" value="590-18-1" />
<Smiles name="SMILES" value="C/C=C\C" />
</compound>

