<compound>
<LibraryIndex name="Index" value="210" />
<CompoundID name="Name" value="cis-2-pentene" />
<StructureFormula name="Structure" value="CH3CHCHCH2CH3" />
<Family name="Family" value="10" />
<CriticalTemperature name="Critical temperature" units="K" value="475" />
<CriticalPressure name="Critical pressure" units="Pa" value="3690000" />
<CriticalVolume name="Critical volume" units="m3/kmol" value="0.3021" />
<CriticalCompressibility name="Critical compressibility factor" units="_" value="0.273" />
<NormalBoilingPointTemperature name="Normal boiling point" units="K" value="310.07" />
<NormalMeltingPointTemperature name="Melting point" units="K" value="121.75" />
<TriplePointTemperature name="Triple point temperature" units="K" value="121.75" />
<TriplePointPressure name="Triple point pressure" units="Pa" value="0.000554" />
<MolecularWeight name="Molecular weight" units="kg/kmol" value="70.1329" />
<LiquidVolumeAtNormalBoilingPoint name="Liquid molar volume at normal boiling point" units="m3/kmol" value="0.10785" />
<AcentricityFactor name="Acentric factor" units="_" value="0.253" />
<RadiusOfGyration name="Radius of gyration" units="m" value="3.33E-10" />
<SolubilityParameter name="Solubility parameter" units="J0.5/m1.5" value="15060" />
<DipoleMoment name="Dipole moment" units="Coulomb.m" value="1.008E-30" />
<VanDerWaalsVolume name="Van der Waals volume" units="m3/kmol" value="0.05451" />
<VanDerWaalsArea name="Van der Waals area" units="m2/kmol" value="7.75E+08" />
<HeatOfFormation name="IG heat of formation" units="J/kmol" value="-2.63E+07" />
<GibbsEnergyOfFormation name="IG Gibbs energy of formation" units="J/kmol" value="7.37E+07" />
<AbsEntropy name="IG absolute entropy" units="J/kmol/K" value="346300" />
<HeatOfFusionAtMeltingPoint name="Heat of fusion at melting point" units="J/kmol" value="7112000" />
<MatthiasCopemanC1 name="Mathias-Copeman C1" units="_" value="0.84852" />
<HeatOfCombustion name="Standard net heat of combustion LHV" units="J/kmol" value="-3.123E+09" />
<SolidDensity name="Solid density" units="kmol/m3">
  <eqno value="2" />
  <A value="14.871" />
  <B value="-0.013598" />
  <Tmin units="K" value="48.7" />
  <Tmax units="K" value="121.75" />
  </SolidDensity>
<LiquidDensity name="Liquid density" units="kmol/m3">
  <eqno value="105" />
  <A value="0.90921" />
  <B value="0.26313" />
  <C value="475" />
  <D value="0.30422" />
  <Tmin units="K" value="121.75" />
  <Tmax units="K" value="475" />
  </LiquidDensity>
<VaporPressure name="Vapour pressure" units="Pa">
  <eqno value="101" />
  <A value="87.54937" />
  <B value="-5782.462" />
  <C value="-10.18969" />
  <D value="0.00001126" />
  <E value="2" />
  <Tmin units="K" value="121.75" />
  <Tmax units="K" value="475" />
  </VaporPressure>
<HeatOfVaporization name="Heat of vaporization" units="J/kmol">
  <eqno value="106" />
  <A value="3.808893E+07" />
  <B value="0.541071" />
  <C value="-0.876512" />
  <D value="1.300916" />
  <E value="-0.612383" />
  <Tmin units="K" value="121.75" />
  <Tmax units="K" value="475" />
  </HeatOfVaporization>
<SolidHeatCapacityCp name="Solid heat capacity" units="J/kmol/K">
  <eqno value="100" />
  <A value="-13230" />
  <B value="1127" />
  <C value="1.3684" />
  <D value="-0.072985" />
  <E value="0.00034019" />
  <Tmin units="K" value="13.51" />
  <Tmax units="K" value="121.78" />
  </SolidHeatCapacityCp>
<LiquidHeatCapacityCp name="Liquid heat capacity" units="J/kmol/K">
  <eqno value="16" />
  <A value="132080" />
  <B value="-10569" />
  <C value="112.64" />
  <D value="-0.34846" />
  <E value="0.00041161" />
  <Tmin units="K" value="121.75" />
  <Tmax units="K" value="310.08" />
  </LiquidHeatCapacityCp>
<IdealGasHeatCapacityCp name="Ideal gas heat capacity" units="J/kmol/K">
  <eqno value="16" />
  <A value="68358" />
  <B value="-741.07" />
  <C value="12.923" />
  <D value="-0.00013529" />
  <E value="3.1324E-08" />
  <Tmin units="K" value="200" />
  <Tmax units="K" value="1500" />
  </IdealGasHeatCapacityCp>
<SecondVirialCoefficient name="Second virial coefficient" units="m3/kmol">
  <eqno value="104" />
  <A value="0.17521" />
  <B value="-182.66" />
  <C value="-16.753" />
  <D value="-994" />
  <E value="1468.3" />
  <Tmin units="K" value="238" />
  <Tmax units="K" value="1904" />
  </SecondVirialCoefficient>
<LiquidViscosity name="Liquid viscosity" units="Pa.s">
  <eqno value="101" />
  <A value="-10.01" />
  <B value="644.41" />
  <C value="-0.11124" />
  <D value="1.3682E-07" />
  <E value="2" />
  <Tmin units="K" value="121.75" />
  <Tmax units="K" value="373" />
  </LiquidViscosity>
<VaporViscosity name="Vapour viscosity" units="Pa.s">
  <eqno value="102" />
  <A value="7.0321E-08" />
  <B value="0.83123" />
  <C value="33.115" />
  <D value="-394.35" />
  <Tmin units="K" value="121.75" />
  <Tmax units="K" value="1000" />
  </VaporViscosity>
<LiquidThermalConductivity name="Liquid thermal conductivity" units="W/m/K">
  <eqno value="16" />
  <A value="-0.06994" />
  <B value="-6.3331" />
  <C value="-1.1883" />
  <D value="-0.0013351" />
  <E value="-7.8623E-07" />
  <Tmin units="K" value="120" />
  <Tmax units="K" value="310.08" />
  </LiquidThermalConductivity>
<VaporThermalConductivity name="Vapour thermal conductivity" units="W/m/K">
  <eqno value="102" />
  <A value="0.00017973" />
  <B value="0.95148" />
  <C value="124.65" />
  <D value="170420" />
  <Tmin units="K" value="121.75" />
  <Tmax units="K" value="1000" />
  </VaporThermalConductivity>
<SurfaceTension name="Surface tension" units="N/m">
  <eqno value="16" />
  <A value="-0.010506" />
  <B value="20.208" />
  <C value="-3.0727" />
  <D value="0.0001059" />
  <E value="-0.0000070674" />
  <Tmin units="K" value="121.75" />
  <Tmax units="K" value="475" />
  </SurfaceTension>
<RPPHeatCapacityCp name="Ideal gas heat capacity (RPP)" units="J/kmol/K">
  <eqno value="100" />
  <A value="24120" />
  <B value="264.28" />
  <C value="0.15315" />
  <D value="-0.00032867" />
  <E value="1.3378E-07" />
  <Tmin units="K" value="298" />
  <Tmax units="K" value="1000" />
  </RPPHeatCapacityCp>
<AntoineVaporPressure name="Antoine" units="Pa">
  <eqno value="10" />
  <A value="20.878" />
  <B value="2544.1" />
  <C value="-38.058" />
  <Tmin units="K" value="285.51" />
  <Tmax units="K" value="419.22" />
  </AntoineVaporPressure>
<LiquidViscosityRPS name="Liquid viscosity (RPS)" units="Pa.s">
  <eqno value="13" />
  <A value="-0.36839" />
  <B value="-0.050845" />
  <C value="0.000079655" />
  <Tmin units="K" value="121.75" />
  <Tmax units="K" value="310.08" />
  </LiquidViscosityRPS>
<COSTALDVolume name="COSTLD characteristic volume (V*)" units="m3/kmol" value="0.28749" />
<DiameterLJ name="Lennard Jones diameter" units="m" value="5.946116E-10" />
<EnergyLJ name="Lennard Jones energy" units="K" value="289.5959" />
<FullerVolume name="Fuller et al. diffusion volume" units="_" value="102.6" />
<MatthiasCopemanC2 name="Mathias-Copeman C2" units="_" value="0.02929" />
<Parachor name="Parachor" units="kg0.25.m3/s0.5/kmol" value="0.039" />
<SpecificGravity name="Specific gravity" units="_" value="0.659575" />
<Charge name="Charge" units="_" value="0" />
<CostaldAcentricFactor name="SRK acentric factor" units="_" value="0.24255" />
<WilsonVolume name="Wilson volume" units="m3/kmol" value="0.10792" />
<UniquacR name="UNIQUAC r" units="_" value="3.5933" />
<UniquacQ name="UNIQUAC q" units="_" value="3.103" />
<ApiSrkS2 name="API-SRK s2" units="_" value="-0.00233" />
<MatthiasCopemanC3 name="Mathias-Copeman C3" units="_" value="-0.13212" />
<ChaoSeaderAcentricFactor name="Chao-Seader acentric factor" units="_" value="0.206" />
<ChaoSeaderSolubilityParameter name="Chao-Seader solubility parameter" units="J0.5/m1.5" value="14420.78" />
<ChaoSeaderLiquidVolume name="Chao-Seader liquid volume" units="m3/kmol" value="0.1078" />
<UnifacVLE name="UNIFAC">
  <group id="1" value="2" />
  <group id="2" value="1" />
  <group id="6" value="1" />
  </UnifacVLE>
<UnifacLLE name="UNIFAC-LLE">
  <group id="1" value="2" />
  <group id="2" value="1" />
  <group id="6" value="1" />
  </UnifacLLE>
<Asog name="ASOG">
  <group id="1" value="2" />
  <group id="2" value="1" />
  <group id="6" value="1" />
  </Asog>
<GCmethod name="PPR78">
  <group id="1" value="2" />
  <group id="2" value="1" />
  <group id="18" value="2" />
  </GCmethod>
<Umr name="UMR">
  <group id="1" value="2" />
  <group id="2" value="1" />
  <group id="6" value="1" />
  </Umr>
<ModifiedUnifac name="Modified UNIFAC">
  <group id="1" value="2" />
  <group id="2" value="1" />
  <group id="6" value="1" />
  </ModifiedUnifac>
<CAS name="CAS number" value="627-20-3" />
<Smiles name="SMILES" value="C/C=C\CC" />
</compound>

