<compound>
<LibraryIndex name="Index" value="153" />
<CompoundID name="Name" value="cis-decahydronaphthalene" />
<StructureFormula name="Structure" value="(CH2)4CHCH(CH2)4" />
<Family name="Family" value="8" />
<CriticalTemperature name="Critical temperature" units="K" value="702.25" />
<CriticalPressure name="Critical pressure" units="Pa" value="3242400" />
<CriticalVolume name="Critical volume" units="m3/kmol" value="0.48" />
<CriticalCompressibility name="Critical compressibility factor" units="_" value="0.267" />
<NormalBoilingPointTemperature name="Normal boiling point" units="K" value="468.965" />
<NormalMeltingPointTemperature name="Melting point" units="K" value="230.17" />
<TriplePointTemperature name="Triple point temperature" units="K" value="230.2" />
<TriplePointPressure name="Triple point pressure" units="Pa" value="0.157166" />
<MolecularWeight name="Molecular weight" units="kg/kmol" value="138.2499" />
<LiquidVolumeAtNormalBoilingPoint name="Liquid molar volume at normal boiling point" units="m3/kmol" value="0.154615" />
<AcentricityFactor name="Acentric factor" units="_" value="0.294204" />
<RadiusOfGyration name="Radius of gyration" units="m" value="4.206E-10" />
<SolubilityParameter name="Solubility parameter" units="J0.5/m1.5" value="17625.3" />
<DipoleMoment name="Dipole moment" units="Coulomb.m" value="0" />
<VanDerWaalsVolume name="Van der Waals volume" units="m3/kmol" value="0.09426" />
<VanDerWaalsArea name="Van der Waals area" units="m2/kmol" value="1.137E+09" />
<HeatOfFormation name="IG heat of formation" units="J/kmol" value="-1.6924E+08" />
<GibbsEnergyOfFormation name="IG Gibbs energy of formation" units="J/kmol" value="8.552E+07" />
<AbsEntropy name="IG absolute entropy" units="J/kmol/K" value="377730" />
<HeatOfFusionAtMeltingPoint name="Heat of fusion at melting point" units="J/kmol" value="9489000" />
<MatthiasCopemanC1 name="Mathias-Copeman C1" units="_" value="0.93532" />
<HeatOfCombustion name="Standard net heat of combustion LHV" units="J/kmol" value="-5.89213E+09" />
<SolidDensity name="Solid density" units="kmol/m3">
  <eqno value="2" />
  <A value="7.97" />
  <B value="-8.742E-09" />
  <Tmin units="K" value="230.2" />
  <Tmax units="K" value="239.7" />
  </SolidDensity>
<LiquidDensity name="Liquid density" units="kmol/m3">
  <eqno value="105" />
  <A value="0.5563" />
  <B value="0.26613" />
  <C value="702.25" />
  <D value="0.2872" />
  <Tmin units="K" value="230.2" />
  <Tmax units="K" value="702.25" />
  </LiquidDensity>
<VaporPressure name="Vapour pressure" units="Pa">
  <eqno value="101" />
  <A value="133.51" />
  <B value="-10671" />
  <C value="-16.446" />
  <D value="0.0000090618" />
  <E value="2" />
  <Tmin units="K" value="230.2" />
  <Tmax units="K" value="702.25" />
  </VaporPressure>
<HeatOfVaporization name="Heat of vaporization" units="J/kmol">
  <eqno value="106" />
  <A value="7.893812E+07" />
  <B value="1.120046" />
  <C value="-0.590284" />
  <D value="-0.648808" />
  <E value="0.601197" />
  <Tmin units="K" value="230.2" />
  <Tmax units="K" value="702.25" />
  </HeatOfVaporization>
<SolidHeatCapacityCp name="Solid heat capacity" units="J/kmol/K">
  <eqno value="100" />
  <A value="5463.3" />
  <B value="610.38" />
  <C value="3.7884" />
  <D value="-0.041328" />
  <E value="0.00011576" />
  <Tmin units="K" value="25" />
  <Tmax units="K" value="220" />
  </SolidHeatCapacityCp>
<LiquidHeatCapacityCp name="Liquid heat capacity" units="J/kmol/K">
  <eqno value="16" />
  <A value="22875" />
  <B value="183.22" />
  <C value="9.7191" />
  <D value="0.0080113" />
  <E value="-0.0000053261" />
  <Tmin units="K" value="230.2" />
  <Tmax units="K" value="600" />
  </LiquidHeatCapacityCp>
<IdealGasHeatCapacityCp name="Ideal gas heat capacity" units="J/kmol/K">
  <eqno value="16" />
  <A value="90923" />
  <B value="-788.66" />
  <C value="14.021" />
  <D value="-0.00046171" />
  <E value="0.0000001235" />
  <Tmin units="K" value="200" />
  <Tmax units="K" value="1500" />
  </IdealGasHeatCapacityCp>
<SecondVirialCoefficient name="Second virial coefficient" units="m3/kmol">
  <eqno value="104" />
  <A value="0.037954" />
  <B value="-145.9" />
  <C value="-175.13" />
  <D value="-52628" />
  <E value="40101" />
  <Tmin units="K" value="293.15" />
  <Tmax units="K" value="693.15" />
  </SecondVirialCoefficient>
<LiquidViscosity name="Liquid viscosity" units="Pa.s">
  <eqno value="101" />
  <A value="-102.87" />
  <B value="5387.9" />
  <C value="14.086" />
  <D value="-0.000014127" />
  <E value="2" />
  <Tmin units="K" value="243.15" />
  <Tmax units="K" value="561.8" />
  </LiquidViscosity>
<VaporViscosity name="Vapour viscosity" units="Pa.s">
  <eqno value="102" />
  <A value="7.2745E-07" />
  <B value="0.51364" />
  <C value="404.18" />
  <D value="49.274" />
  <Tmin units="K" value="468.96" />
  <Tmax units="K" value="1000" />
  </VaporViscosity>
<LiquidThermalConductivity name="Liquid thermal conductivity" units="W/m/K">
  <eqno value="16" />
  <A value="0.087597" />
  <B value="-101" />
  <C value="-1.0253" />
  <D value="-0.0090174" />
  <E value="0.0000045064" />
  <Tmin units="K" value="293.15" />
  <Tmax units="K" value="468.96" />
  </LiquidThermalConductivity>
<VaporThermalConductivity name="Vapour thermal conductivity" units="W/m/K">
  <eqno value="102" />
  <A value="0.0000017593" />
  <B value="1.7742" />
  <C value="317.62" />
  <D value="37605" />
  <Tmin units="K" value="230.2" />
  <Tmax units="K" value="1000" />
  </VaporThermalConductivity>
<SurfaceTension name="Surface tension" units="N/m">
  <eqno value="16" />
  <A value="-0.0073102" />
  <B value="159.63" />
  <C value="-4.1152" />
  <D value="0.0030369" />
  <E value="-0.0000064896" />
  <Tmin units="K" value="230.2" />
  <Tmax units="K" value="702.25" />
  </SurfaceTension>
<RPPHeatCapacityCp name="Ideal gas heat capacity (RPP)" units="J/kmol/K">
  <eqno value="100" />
  <A value="-45272" />
  <B value="665.72" />
  <C value="0.42113" />
  <D value="-0.00097745" />
  <E value="4.2304E-07" />
  <Tmin units="K" value="298" />
  <Tmax units="K" value="1000" />
  </RPPHeatCapacityCp>
<AntoineVaporPressure name="Antoine" units="Pa">
  <eqno value="10" />
  <A value="20.082" />
  <B value="3127.3" />
  <C value="-102.92" />
  <Tmin units="K" value="424.98" />
  <Tmax units="K" value="627.72" />
  </AntoineVaporPressure>
<LiquidViscosityRPS name="Liquid viscosity (RPS)" units="Pa.s">
  <eqno value="13" />
  <A value="6.7247" />
  <B value="-0.061114" />
  <C value="0.000064934" />
  <Tmin units="K" value="243.15" />
  <Tmax units="K" value="468.96" />
  </LiquidViscosityRPS>
<COSTALDVolume name="COSTLD characteristic volume (V*)" units="m3/kmol" value="0.52096" />
<DiameterLJ name="Lennard Jones diameter" units="m" value="7.12599E-10" />
<EnergyLJ name="Lennard Jones energy" units="K" value="395.2259" />
<RacketParameter name="Rackett parameter" units="_" value="0.264744" />
<FullerVolume name="Fuller et al. diffusion volume" units="_" value="200.58" />
<MatthiasCopemanC2 name="Mathias-Copeman C2" units="_" value="-0.23541" />
<Parachor name="Parachor" units="kg0.25.m3/s0.5/kmol" value="0.0321597" />
<SpecificGravity name="Specific gravity" units="_" value="0.90094" />
<Charge name="Charge" units="_" value="0" />
<CostaldAcentricFactor name="SRK acentric factor" units="_" value="0.294204" />
<WilsonVolume name="Wilson volume" units="m3/kmol" value="0.154615" />
<UniquacR name="UNIQUAC r" units="_" value="6.289" />
<UniquacQ name="UNIQUAC q" units="_" value="4.776" />
<ApiSrkS2 name="API-SRK s2" units="_" value="-0.00602" />
<MatthiasCopemanC3 name="Mathias-Copeman C3" units="_" value="0.63311" />
<ChaoSeaderAcentricFactor name="Chao-Seader acentric factor" units="_" value="0.294204" />
<ChaoSeaderSolubilityParameter name="Chao-Seader solubility parameter" units="J0.5/m1.5" value="17625.3" />
<ChaoSeaderLiquidVolume name="Chao-Seader liquid volume" units="m3/kmol" value="0.154615" />
<UnifacVLE name="UNIFAC">
  <group id="2" value="8" />
  <group id="3" value="2" />
  </UnifacVLE>
<UnifacLLE name="UNIFAC-LLE">
  <group id="2" value="8" />
  <group id="3" value="2" />
  </UnifacLLE>
<Asog name="ASOG">
  <group id="2" value="8" />
  <group id="3" value="2" />
  </Asog>
<GCmethod name="PPR78">
  <group id="2" value="8" />
  <group id="3" value="2" />
  <group id="10" value="8" />
  <group id="11" value="2" />
  </GCmethod>
<Umr name="UMR">
  <group id="2" value="8" />
  <group id="3" value="2" />
  </Umr>
<ModifiedUnifac name="Modified UNIFAC">
  <group id="78" value="8" />
  <group id="79" value="2" />
  </ModifiedUnifac>
<CAS name="CAS number" value="493-01-6" />
<Smiles name="SMILES" value="C1C[C@]2(CCCC[C@]2(CC1)([H]))([H])" />
</compound>

