<compound>
<LibraryIndex name="Index" value="146" />
<CompoundID name="Name" value="cis-1,4-dimethylcyclohexane" />
<StructureFormula name="Structure" value="-CH(CH3)CH2CH2CH(CH3)(CH2)2-" />
<Family name="Family" value="7" />
<CriticalTemperature name="Critical temperature" units="K" value="598.15" />
<CriticalPressure name="Critical pressure" units="Pa" value="2938430" />
<CriticalVolume name="Critical volume" units="m3/kmol" value="0.46" />
<CriticalCompressibility name="Critical compressibility factor" units="_" value="0.272" />
<NormalBoilingPointTemperature name="Normal boiling point" units="K" value="397.48" />
<NormalMeltingPointTemperature name="Melting point" units="K" value="185.744" />
<TriplePointTemperature name="Triple point temperature" units="K" value="185.72" />
<TriplePointPressure name="Triple point pressure" units="Pa" value="0.0704204" />
<MolecularWeight name="Molecular weight" units="kg/kmol" value="112.2126" />
<LiquidVolumeAtNormalBoilingPoint name="Liquid molar volume at normal boiling point" units="m3/kmol" value="0.144106" />
<AcentricityFactor name="Acentric factor" units="_" value="0.2348" />
<RadiusOfGyration name="Radius of gyration" units="m" value="3.905E-10" />
<SolubilityParameter name="Solubility parameter" units="J0.5/m1.5" value="15980" />
<DipoleMoment name="Dipole moment" units="Coulomb.m" value="0" />
<VanDerWaalsVolume name="Van der Waals volume" units="m3/kmol" value="0.08068" />
<VanDerWaalsArea name="Van der Waals area" units="m2/kmol" value="1.021E+09" />
<HeatOfFormation name="IG heat of formation" units="J/kmol" value="-1.76648E+08" />
<GibbsEnergyOfFormation name="IG Gibbs energy of formation" units="J/kmol" value="3.79489E+07" />
<AbsEntropy name="IG absolute entropy" units="J/kmol/K" value="370451" />
<HeatOfFusionAtMeltingPoint name="Heat of fusion at melting point" units="J/kmol" value="9307730" />
<MatthiasCopemanC1 name="Mathias-Copeman C1" units="_" value="0.76732" />
<HeatOfCombustion name="Standard net heat of combustion LHV" units="J/kmol" value="-4.86704E+09" />
<SolidDensity name="Solid density" units="kmol/m3">
  <eqno value="2" />
  <A value="9.7979" />
  <B value="-0.0058522" />
  <C value="0" />
  <D value="0" />
  <E value="0" />
  <Tmin units="K" value="74.29" />
  <Tmax units="K" value="185.72" />
  </SolidDensity>
<LiquidDensity name="Liquid density" units="kmol/m3">
  <eqno value="105" />
  <A value="0.53336" />
  <B value="0.24533" />
  <C value="598.15" />
  <D value="0.2771" />
  <Tmin units="K" value="185.72" />
  <Tmax units="K" value="576.44" />
  </LiquidDensity>
<VaporPressure name="Vapour pressure" units="Pa">
  <eqno value="101" />
  <A value="79.163" />
  <B value="-7004.6" />
  <C value="-8.4779" />
  <D value="0.0000046053" />
  <E value="2" />
  <Tmin units="K" value="185.72" />
  <Tmax units="K" value="598.15" />
  </VaporPressure>
<HeatOfVaporization name="Heat of vaporization" units="J/kmol">
  <eqno value="106" />
  <A value="7.1514E+07" />
  <B value="2.3724" />
  <C value="-5.2021" />
  <D value="5.4751" />
  <E value="-2.1521" />
  <Tmin units="K" value="185.72" />
  <Tmax units="K" value="576.44" />
  </HeatOfVaporization>
<SolidHeatCapacityCp name="Solid heat capacity" units="J/kmol/K">
  <eqno value="100" />
  <A value="-15617" />
  <B value="1688.8" />
  <C value="-13.402" />
  <D value="0.071342" />
  <E value="-0.00014259" />
  <Tmin units="K" value="19.17" />
  <Tmax units="K" value="173.61" />
  </SolidHeatCapacityCp>
<LiquidHeatCapacityCp name="Liquid heat capacity" units="J/kmol/K">
  <eqno value="16" />
  <A value="110770" />
  <B value="140.07" />
  <C value="8.7617" />
  <D value="0.0091373" />
  <E value="-0.0000048302" />
  <Tmin units="K" value="185.72" />
  <Tmax units="K" value="397.47" />
  </LiquidHeatCapacityCp>
<IdealGasHeatCapacityCp name="Ideal gas heat capacity" units="J/kmol/K">
  <eqno value="16" />
  <A value="101700" />
  <B value="-844.25" />
  <C value="13.931" />
  <D value="-0.00056374" />
  <E value="1.5762E-07" />
  <Tmin units="K" value="200" />
  <Tmax units="K" value="1500" />
  </IdealGasHeatCapacityCp>
<SecondVirialCoefficient name="Second virial coefficient" units="m3/kmol">
  <eqno value="104" />
  <A value="0.23973" />
  <B value="-318.64" />
  <C value="-42.246" />
  <D value="-26.054" />
  <E value="-2319.1" />
  <Tmin units="K" value="299.08" />
  <Tmax units="K" value="2000" />
  </SecondVirialCoefficient>
<LiquidViscosity name="Liquid viscosity" units="Pa.s">
  <eqno value="101" />
  <A value="-20.704" />
  <B value="1391.4" />
  <C value="1.6378" />
  <D value="-0.0000047953" />
  <E value="2" />
  <Tmin units="K" value="185.72" />
  <Tmax units="K" value="472" />
  </LiquidViscosity>
<VaporViscosity name="Vapour viscosity" units="Pa.s">
  <eqno value="102" />
  <A value="0.0000024207" />
  <B value="0.36412" />
  <C value="666.44" />
  <D value="4231" />
  <Tmin units="K" value="397.47" />
  <Tmax units="K" value="1000" />
  </VaporViscosity>
<LiquidThermalConductivity name="Liquid thermal conductivity" units="W/m/K">
  <eqno value="16" />
  <A value="-0.063527" />
  <B value="3.3026" />
  <C value="-1.4941" />
  <D value="-0.0004362" />
  <E value="-0.0000011663" />
  <Tmin units="K" value="185.72" />
  <Tmax units="K" value="397.47" />
  </LiquidThermalConductivity>
<VaporThermalConductivity name="Vapour thermal conductivity" units="W/m/K">
  <eqno value="102" />
  <A value="0.016747" />
  <B value="0.34072" />
  <C value="-1.7965" />
  <D value="898230" />
  <Tmin units="K" value="185.72" />
  <Tmax units="K" value="1000" />
  </VaporThermalConductivity>
<SurfaceTension name="Surface tension" units="N/m">
  <eqno value="16" />
  <A value="-0.013074" />
  <B value="24.299" />
  <C value="-3.0007" />
  <D value="-0.00018331" />
  <E value="-0.0000036266" />
  <Tmin units="K" value="185.72" />
  <Tmax units="K" value="576.44" />
  </SurfaceTension>
<RPPHeatCapacityCp name="Ideal gas heat capacity (RPP)" units="J/kmol/K">
  <eqno value="4" />
  <A value="-40884" />
  <B value="783.56" />
  <C value="-0.38232" />
  <D value="0.000063738" />
  <Tmin units="K" value="200" />
  <Tmax units="K" value="1500" />
  </RPPHeatCapacityCp>
<AntoineVaporPressure name="Antoine" units="Pa">
  <eqno value="10" />
  <A value="20.447" />
  <B value="2982.9" />
  <C value="-63.108" />
  <Tmin units="K" value="359.37" />
  <Tmax units="K" value="533.03" />
  </AntoineVaporPressure>
<LiquidViscosityRPS name="Liquid viscosity (RPS)" units="Pa.s">
  <eqno value="12" />
  <A value="-2.4904" />
  <B value="-0.015056" />
  <Tmin units="K" value="185.72" />
  <Tmax units="K" value="397.47" />
  </LiquidViscosityRPS>
<COSTALDVolume name="COSTLD characteristic volume (V*)" units="m3/kmol" value="0.438832" />
<DiameterLJ name="Lennard Jones diameter" units="m" value="6.87092E-10" />
<EnergyLJ name="Lennard Jones energy" units="K" value="359.8914" />
<RacketParameter name="Rackett parameter" units="_" value="0.258525" />
<FullerVolume name="Fuller et al. diffusion volume" units="_" value="164.16" />
<MatthiasCopemanC2 name="Mathias-Copeman C2" units="_" value="0.50855" />
<Parachor name="Parachor" units="kg0.25.m3/s0.5/kmol" value="0.0569489" />
<SpecificGravity name="Specific gravity" units="_" value="0.787298" />
<Charge name="Charge" units="_" value="0" />
<CostaldAcentricFactor name="SRK acentric factor" units="_" value="0.2348" />
<WilsonVolume name="Wilson volume" units="m3/kmol" value="0.144106" />
<UniquacR name="UNIQUAC r" units="_" value="5.3936" />
<UniquacQ name="UNIQUAC q" units="_" value="4.312" />
<ApiSrkS2 name="API-SRK s2" units="_" value="0.007723" />
<MatthiasCopemanC3 name="Mathias-Copeman C3" units="_" value="-0.55767" />
<ChaoSeaderAcentricFactor name="Chao-Seader acentric factor" units="_" value="0.2348" />
<ChaoSeaderSolubilityParameter name="Chao-Seader solubility parameter" units="J0.5/m1.5" value="15980" />
<ChaoSeaderLiquidVolume name="Chao-Seader liquid volume" units="m3/kmol" value="0.144106" />
<UnifacVLE name="UNIFAC">
  <group id="1" value="2" />
  <group id="2" value="4" />
  <group id="3" value="2" />
  </UnifacVLE>
<UnifacLLE name="UNIFAC-LLE">
  <group id="1" value="2" />
  <group id="2" value="4" />
  <group id="3" value="2" />
  </UnifacLLE>
<Asog name="ASOG">
  <group id="1" value="2" />
  <group id="2" value="4" />
  <group id="3" value="2" />
  </Asog>
<GCmethod name="PPR78">
  <group id="1" value="2" />
  <group id="10" value="4" />
  <group id="11" value="2" />
  </GCmethod>
<Umr name="UMR">
  <group id="1" value="2" />
  <group id="2" value="4" />
  <group id="3" value="2" />
  </Umr>
<ModifiedUnifac name="Modified UNIFAC">
  <group id="1" value="2" />
  <group id="78" value="4" />
  <group id="79" value="2" />
  </ModifiedUnifac>
<CAS name="CAS number" value="624-29-3" />
<Smiles name="SMILES" value="C1[C@@](C)([H])(CC[C@]([H])(C)(C1))" />
</compound>

