<compound>
<LibraryIndex name="Index" value="270" />
<CompoundID name="Name" value="cyclohexene" />
<StructureFormula name="Structure" value="-CH2CHCHCH2CH2CH2-" />
<Family name="Family" value="13" />
<CriticalTemperature name="Critical temperature" units="K" value="560.42" />
<CriticalPressure name="Critical pressure" units="Pa" value="4350000" />
<CriticalVolume name="Critical volume" units="m3/kmol" value="0.291" />
<CriticalCompressibility name="Critical compressibility factor" units="_" value="0.272" />
<NormalBoilingPointTemperature name="Normal boiling point" units="K" value="356.12" />
<NormalMeltingPointTemperature name="Melting point" units="K" value="169.67" />
<TriplePointTemperature name="Triple point temperature" units="K" value="169.67" />
<TriplePointPressure name="Triple point pressure" units="Pa" value="0.103772" />
<MolecularWeight name="Molecular weight" units="kg/kmol" value="82.1436" />
<LiquidVolumeAtNormalBoilingPoint name="Liquid molar volume at normal boiling point" units="m3/kmol" value="0.101877" />
<AcentricityFactor name="Acentric factor" units="_" value="0.212302" />
<RadiusOfGyration name="Radius of gyration" units="m" value="3.157E-10" />
<SolubilityParameter name="Solubility parameter" units="J0.5/m1.5" value="17420" />
<DipoleMoment name="Dipole moment" units="Coulomb.m" value="1.83E-30" />
<VanDerWaalsVolume name="Van der Waals volume" units="m3/kmol" value="0.05672" />
<VanDerWaalsArea name="Van der Waals area" units="m2/kmol" value="6.99E+08" />
<HeatOfFormation name="IG heat of formation" units="J/kmol" value="-4520000" />
<GibbsEnergyOfFormation name="IG Gibbs energy of formation" units="J/kmol" value="1.077E+08" />
<AbsEntropy name="IG absolute entropy" units="J/kmol/K" value="310750" />
<HeatOfFusionAtMeltingPoint name="Heat of fusion at melting point" units="J/kmol" value="3290000" />
<MatthiasCopemanC1 name="Mathias-Copeman C1" units="_" value="0.815753" />
<HeatOfCombustion name="Standard net heat of combustion LHV" units="J/kmol" value="-3.532E+09" />
<SolidDensity name="Solid density" units="kmol/m3">
  <eqno value="2" />
  <A value="14.172" />
  <B value="-0.0093983" />
  <C value="0" />
  <D value="0" />
  <E value="0" />
  <Tmin units="K" value="67.87" />
  <Tmax units="K" value="169.67" />
  </SolidDensity>
<LiquidDensity name="Liquid density" units="kmol/m3">
  <eqno value="105" />
  <A value="0.807" />
  <B value="0.25253" />
  <C value="560.42" />
  <D value="0.26738" />
  <Tmin units="K" value="169.67" />
  <Tmax units="K" value="560.4" />
  </LiquidDensity>
<VaporPressure name="Vapour pressure" units="Pa">
  <eqno value="101" />
  <A value="82.052" />
  <B value="-6388.7" />
  <C value="-9.1035" />
  <D value="0.0000071317" />
  <E value="2" />
  <Tmin units="K" value="169.67" />
  <Tmax units="K" value="560.4" />
  </VaporPressure>
<HeatOfVaporization name="Heat of vaporization" units="J/kmol">
  <eqno value="106" />
  <A value="5.794402E+07" />
  <B value="1.587579" />
  <C value="-2.225474" />
  <D value="1.109627" />
  <E value="0.041589" />
  <Tmin units="K" value="169.67" />
  <Tmax units="K" value="560.4" />
  </HeatOfVaporization>
<SolidHeatCapacityCp name="Solid heat capacity" units="J/kmol/K">
  <eqno value="100" />
  <A value="-106910" />
  <B value="3261.1" />
  <C value="-17.561" />
  <D value="0.022428" />
  <E value="0.000070624" />
  <Tmin units="K" value="110" />
  <Tmax units="K" value="169.66" />
  </SolidHeatCapacityCp>
<LiquidHeatCapacityCp name="Liquid heat capacity" units="J/kmol/K">
  <eqno value="16" />
  <A value="97738" />
  <B value="2.3363" />
  <C value="7.7626" />
  <D value="0.013772" />
  <E value="-0.000011653" />
  <Tmin units="K" value="169.67" />
  <Tmax units="K" value="356.12" />
  </LiquidHeatCapacityCp>
<IdealGasHeatCapacityCp name="Ideal gas heat capacity" units="J/kmol/K">
  <eqno value="16" />
  <A value="48919" />
  <B value="-644.33" />
  <C value="13.16" />
  <D value="-0.0002758" />
  <E value="9.0717E-08" />
  <Tmin units="K" value="150" />
  <Tmax units="K" value="1500" />
  </IdealGasHeatCapacityCp>
<SecondVirialCoefficient name="Second virial coefficient" units="m3/kmol">
  <eqno value="104" />
  <A value="0.17779" />
  <B value="-223.3" />
  <C value="-26.025" />
  <D value="400.34" />
  <E value="-7027.1" />
  <Tmin units="K" value="280.2" />
  <Tmax units="K" value="1500" />
  </SecondVirialCoefficient>
<LiquidViscosity name="Liquid viscosity" units="Pa.s">
  <eqno value="101" />
  <A value="-11.901" />
  <B value="1159.3" />
  <C value="0.11228" />
  <D value="-1.9651E-07" />
  <E value="2" />
  <Tmin units="K" value="200" />
  <Tmax units="K" value="448.336" />
  </LiquidViscosity>
<VaporViscosity name="Vapour viscosity" units="Pa.s">
  <eqno value="102" />
  <A value="0.0000013322" />
  <B value="0.45371" />
  <C value="444.45" />
  <D value="117.38" />
  <Tmin units="K" value="169.67" />
  <Tmax units="K" value="1000" />
  </VaporViscosity>
<LiquidThermalConductivity name="Liquid thermal conductivity" units="W/m/K">
  <eqno value="16" />
  <A value="0.11174" />
  <B value="816.81" />
  <C value="-14.373" />
  <D value="0.055987" />
  <E value="-0.00010104" />
  <Tmin units="K" value="169.67" />
  <Tmax units="K" value="383.15" />
  </LiquidThermalConductivity>
<VaporThermalConductivity name="Vapour thermal conductivity" units="W/m/K">
  <eqno value="102" />
  <A value="0.000094336" />
  <B value="1.0783" />
  <C value="568.3" />
  <D value="34471" />
  <Tmin units="K" value="169.67" />
  <Tmax units="K" value="1000" />
  </VaporThermalConductivity>
<SurfaceTension name="Surface tension" units="N/m">
  <eqno value="16" />
  <A value="-0.011245" />
  <B value="31.113" />
  <C value="-2.988" />
  <D value="0.00029997" />
  <E value="-0.0000055654" />
  <Tmin units="K" value="169.67" />
  <Tmax units="K" value="560.4" />
  </SurfaceTension>
<RPPHeatCapacityCp name="Ideal gas heat capacity (RPP)" units="J/kmol/K">
  <eqno value="4" />
  <A value="-29684" />
  <B value="538" />
  <C value="-0.28796" />
  <D value="0.000056637" />
  <Tmin units="K" value="150" />
  <Tmax units="K" value="1500" />
  </RPPHeatCapacityCp>
<AntoineVaporPressure name="Antoine" units="Pa">
  <eqno value="10" />
  <A value="20.91" />
  <B value="2943.1" />
  <C value="-42.47" />
  <Tmin units="K" value="336.35" />
  <Tmax units="K" value="500" />
  </AntoineVaporPressure>
<LiquidViscosityRPS name="Liquid viscosity (RPS)" units="Pa.s">
  <eqno value="12" />
  <A value="-3.1149" />
  <B value="-0.014108" />
  <Tmin units="K" value="200" />
  <Tmax units="K" value="373.15" />
  </LiquidViscosityRPS>
<COSTALDVolume name="COSTLD characteristic volume (V*)" units="m3/kmol" value="0.302527" />
<DiameterLJ name="Lennard Jones diameter" units="m" value="5.898296E-10" />
<EnergyLJ name="Lennard Jones energy" units="K" value="337.1902" />
<RacketParameter name="Rackett parameter" units="_" value="0.272" />
<FullerVolume name="Fuller et al. diffusion volume" units="_" value="118.5" />
<MatthiasCopemanC2 name="Mathias-Copeman C2" units="_" value="0" />
<Parachor name="Parachor" units="kg0.25.m3/s0.5/kmol" value="0.0407571" />
<SpecificGravity name="Specific gravity" units="_" value="0.816732" />
<Charge name="Charge" units="_" value="0" />
<CostaldAcentricFactor name="SRK acentric factor" units="_" value="0.212302" />
<WilsonVolume name="Wilson volume" units="m3/kmol" value="0.101877" />
<UniquacR name="UNIQUAC r" units="_" value="3.8143" />
<UniquacQ name="UNIQUAC q" units="_" value="3.027" />
<MatthiasCopemanC3 name="Mathias-Copeman C3" units="_" value="0" />
<ChaoSeaderAcentricFactor name="Chao-Seader acentric factor" units="_" value="0.212302" />
<ChaoSeaderSolubilityParameter name="Chao-Seader solubility parameter" units="J0.5/m1.5" value="17420" />
<ChaoSeaderLiquidVolume name="Chao-Seader liquid volume" units="m3/kmol" value="0.101877" />
<UnifacVLE name="UNIFAC">
  <group id="2" value="4" />
  <group id="6" value="1" />
  </UnifacVLE>
<UnifacLLE name="UNIFAC-LLE">
  <group id="2" value="4" />
  <group id="6" value="1" />
  </UnifacLLE>
<Asog name="ASOG">
  <group id="2" value="4" />
  <group id="6" value="1" />
  </Asog>
<GCmethod name="PPR78">
  <group id="10" value="4" />
  <group id="20" value="2" />
  </GCmethod>
<Umr name="UMR">
  <group id="2" value="4" />
  <group id="6" value="1" />
  </Umr>
<ModifiedUnifac name="Modified UNIFAC">
  <group id="6" value="1" />
  <group id="78" value="4" />
  </ModifiedUnifac>
<CAS name="CAS number" value="110-83-8" />
<Smiles name="SMILES" value="C1=CCCCC1" />
</compound>

