<compound>
<LibraryIndex name="Index" value="24450" />
<CompoundID name="Name" value="cyrene" />
<StructureFormula name="Structure" value="C6H8O3" />
<Family name="Family" value="45" />
<CriticalTemperature name="Critical temperature" units="K" value="657.8597" />
<CriticalPressure name="Critical pressure" units="Pa" value="3566445" />
<CriticalVolume name="Critical volume" units="m3/kmol" value="0.39637" />
<CriticalCompressibility name="Critical compressibility factor" units="_" value="0.258445" />
<NormalBoilingPointTemperature name="Normal boiling point" units="K" value="499" />
<MolecularWeight name="Molecular weight" units="kg/kmol" value="128.1259" />
<LiquidVolumeAtNormalBoilingPoint name="Liquid molar volume at normal boiling point" units="m3/kmol" value="0.102439" />
<AcentricityFactor name="Acentric factor" units="_" value="0.4596" />
<RadiusOfGyration name="Radius of gyration" units="m" value="3.987967E-10" />
<SolubilityParameter name="Solubility parameter" units="J0.5/m1.5" value="19284.68" />
<VanDerWaalsVolume name="Van der Waals volume" units="m3/kmol" value="0.0770333" />
<VanDerWaalsArea name="Van der Waals area" units="m2/kmol" value="1.011999E+09" />
<HeatOfFormation name="IG heat of formation" units="J/kmol" value="-4.429601E+08" />
<GibbsEnergyOfFormation name="IG Gibbs energy of formation" units="J/kmol" value="-1.832818E+08" />
<AbsEntropy name="IG absolute entropy" units="J/kmol/K" value="194481.4" />
<HeatOfCombustion name="Standard net heat of combustion LHV" units="J/kmol" value="-3.6445E+09" />
<VaporPressure name="Vapour pressure" units="Pa">
  <eqno value="200" />
  <A value="-8.831002" />
  <B value="1.593522" />
  <C value="-3.68856" />
  <D value="-5.598951" />
  <E value="1363656" />
  <Tmin units="K" value="273.15" />
  <Tmax units="K" value="500" />
  </VaporPressure>
<HeatOfVaporization name="Heat of vaporization" units="J/kmol">
  <eqno value="106" />
  <A value="7.452686E+07" />
  <B value="0.38" />
  <C value="0" />
  <D value="0" />
  <E value="0" />
  <Tmin units="K" value="323.4706" />
  <Tmax units="K" value="657.8597" />
  </HeatOfVaporization>
<LiquidHeatCapacityCp name="Liquid heat capacity" units="J/kmol/K">
  <eqno value="3" />
  <A value="-41244.28" />
  <B value="740.775" />
  <C value="-0.34578" />
  <Tmin units="K" value="323.4706" />
  <Tmax units="K" value="657.8597" />
  </LiquidHeatCapacityCp>
<IdealGasHeatCapacityCp name="Ideal gas heat capacity" units="J/kmol/K">
  <eqno value="4" />
  <A value="21518.73" />
  <B value="675.8666" />
  <C value="-0.398693" />
  <D value="0.0000836298" />
  <E value="0" />
  <Tmin units="K" value="197.3579" />
  <Tmax units="K" value="2000" />
  </IdealGasHeatCapacityCp>
<LiquidViscosity name="Liquid viscosity" units="Pa.s">
  <eqno value="101" />
  <A value="61.83602" />
  <B value="-25277.47" />
  <C value="0" />
  <D value="0" />
  <E value="0" />
  <Tmin units="K" value="311" />
  <Tmax units="K" value="657.8597" />
  </LiquidViscosity>
<VaporViscosity name="Vapour viscosity" units="Pa.s">
  <eqno value="2" />
  <A value="1.593857E-07" />
  <B value="1.418049E-08" />
  <Tmin units="K" value="462.1009" />
  <Tmax units="K" value="1000" />
  </VaporViscosity>
<LiquidThermalConductivity name="Liquid thermal conductivity" units="W/m/K">
  <eqno value="3" />
  <A value="0.129321" />
  <B value="0.000332684" />
  <C value="-1.058146E-06" />
  <Tmin units="K" value="253.15" />
  <Tmax units="K" value="423.15" />
  </LiquidThermalConductivity>
<VaporThermalConductivity name="Vapour thermal conductivity" units="W/m/K">
  <eqno value="3" />
  <A value="-0.0396662" />
  <B value="0.000161047" />
  <C value="-6.351706E-08" />
  <Tmin units="K" value="311" />
  <Tmax units="K" value="643.15" />
  </VaporThermalConductivity>
<SurfaceTension name="Surface tension" units="N/m">
  <eqno value="106" />
  <A value="0.0815672" />
  <B value="1.232" />
  <C value="0" />
  <D value="0" />
  <E value="0" />
  <Tmin units="K" value="273.15" />
  <Tmax units="K" value="657.8597" />
  </SurfaceTension>
<RPPHeatCapacityCp name="Ideal gas heat capacity (RPP)" units="J/kmol/K">
  <eqno value="100" />
  <A value="29100.65" />
  <B value="0" />
  <C value="0" />
  <D value="0" />
  <E value="0" />
  <Tmin units="K" value="0" />
  <Tmax units="K" value="20000" />
  </RPPHeatCapacityCp>
<AntoineVaporPressure name="Antoine" units="Pa">
  <eqno value="10" />
  <A value="20.40167" />
  <B value="3749.238" />
  <C value="-88.50548" />
  <Tmin units="K" value="273.15" />
  <Tmax units="K" value="500" />
  </AntoineVaporPressure>
<COSTALDVolume name="COSTLD characteristic volume (V*)" units="m3/kmol" value="0.417435" />
<DiameterLJ name="Lennard Jones diameter" units="m" value="6.951895E-10" />
<EnergyLJ name="Lennard Jones energy" units="K" value="329.2855" />
<RacketParameter name="Rackett parameter" units="_" value="0.258445" />
<FullerVolume name="Fuller et al. diffusion volume" units="_" value="124.062" />
<Parachor name="Parachor" units="kg0.25.m3/s0.5/kmol" value="0.0288164" />
<SpecificGravity name="Specific gravity" units="_" value="1.1386" />
<Charge name="Charge" units="_" value="0" />
<CostaldAcentricFactor name="SRK acentric factor" units="_" value="0.4596" />
<WilsonVolume name="Wilson volume" units="m3/kmol" value="0.12642" />
<UniquacR name="UNIQUAC r" units="_" value="5.078" />
<UniquacQ name="UNIQUAC q" units="_" value="4.048" />
<UniquacQP name="UNIQUAC q'" units="_" value="4.048" />
<ApiSrkS1 name="API-SRK s1" units="_" value="1.165267" />
<ApiSrkS2 name="API-SRK s2" units="_" value="0" />
<ChaoSeaderAcentricFactor name="Chao-Seader acentric factor" units="_" value="0.4596" />
<ChaoSeaderSolubilityParameter name="Chao-Seader solubility parameter" units="J0.5/m1.5" value="19284.68" />
<ChaoSeaderLiquidVolume name="Chao-Seader liquid volume" units="m3/kmol" value="0.12642" />
<UnifacVLE name="UNIFAC">
  <group id="2" value="1" />
  <group id="3" value="1" />
  <group id="20" value="1" />
  <group id="26" value="1" />
  <group id="27" value="1" />
  </UnifacVLE>
<UnifacLLE name="UNIFAC-LLE">
  <group id="2" value="1" />
  <group id="3" value="1" />
  <group id="20" value="1" />
  <group id="28" value="1" />
  <group id="29" value="1" />
  </UnifacLLE>
<Asog name="ASOG">
  <group id="2" value="1" />
  <group id="3" value="1" />
  <group id="18" value="1" />
  <group id="19" value="1" />
  <group id="19" value="1" />
  </Asog>
<GCmethod name="PPR78">
  <group id="2" value="1" />
  <group id="3" value="1" />
  </GCmethod>
<Umr name="UMR">
  <group id="2" value="1" />
  <group id="3" value="1" />
  <group id="20" value="1" />
  <group id="26" value="1" />
  <group id="27" value="1" />
  </Umr>
<ModifiedUnifac name="Modified UNIFAC">
  <group id="2" value="1" />
  <group id="3" value="1" />
  <group id="19" value="1" />
  <group id="25" value="1" />
  <group id="26" value="1" />
  </ModifiedUnifac>
<CAS name="CAS number" value="53716-82-8" />
<Smiles name="SMILES" value="C1CC(=O)C2OCC1O2" />
</compound>

