<compound>
<LibraryIndex name="Index" value="1404" />
<CompoundID name="Name" value="di-n-butyl ether" />
<StructureFormula name="Structure" value="(C4H9)2O" />
<Family name="Family" value="61" />
<CriticalTemperature name="Critical temperature" units="K" value="580.15" />
<CriticalPressure name="Critical pressure" units="Pa" value="2380000" />
<CriticalVolume name="Critical volume" units="m3/kmol" value="0.511" />
<CriticalCompressibility name="Critical compressibility factor" units="_" value="0.247" />
<NormalBoilingPointTemperature name="Normal boiling point" units="K" value="415.35" />
<NormalMeltingPointTemperature name="Melting point" units="K" value="177.95" />
<TriplePointTemperature name="Triple point temperature" units="K" value="175.3" />
<TriplePointPressure name="Triple point pressure" units="Pa" value="0.000714135" />
<MolecularWeight name="Molecular weight" units="kg/kmol" value="130.2279" />
<LiquidVolumeAtNormalBoilingPoint name="Liquid molar volume at normal boiling point" units="m3/kmol" value="0.17041" />
<AcentricityFactor name="Acentric factor" units="_" value="0.447646" />
<RadiusOfGyration name="Radius of gyration" units="m" value="4.797E-10" />
<SolubilityParameter name="Solubility parameter" units="J0.5/m1.5" value="15830" />
<DipoleMoment name="Dipole moment" units="Coulomb.m" value="3.9E-30" />
<VanDerWaalsVolume name="Van der Waals volume" units="m3/kmol" value="0.09192" />
<VanDerWaalsArea name="Van der Waals area" units="m2/kmol" value="1.288E+09" />
<HeatOfFormation name="IG heat of formation" units="J/kmol" value="-3.339E+08" />
<GibbsEnergyOfFormation name="IG Gibbs energy of formation" units="J/kmol" value="-8.827E+07" />
<AbsEntropy name="IG absolute entropy" units="J/kmol/K" value="481200" />
<HeatOfFusionAtMeltingPoint name="Heat of fusion at melting point" units="J/kmol" value="1.63E+07" />
<MatthiasCopemanC1 name="Mathias-Copeman C1" units="_" value="1.33492" />
<HeatOfCombustion name="Standard net heat of combustion LHV" units="J/kmol" value="-4.94716E+09" />
<SolidDensity name="Solid density" units="kmol/m3">
  <eqno value="2" />
  <A value="8.3732" />
  <B value="-0.005226" />
  <C value="0" />
  <D value="0" />
  <E value="0" />
  <Tmin units="K" value="70.12" />
  <Tmax units="K" value="177.95" />
  </SolidDensity>
<LiquidDensity name="Liquid density" units="kmol/m3">
  <eqno value="105" />
  <A value="0.22926" />
  <B value="0.17412" />
  <C value="584.11" />
  <D value="0.21764" />
  <Tmin units="K" value="175.3" />
  <Tmax units="K" value="584.1" />
  </LiquidDensity>
<VaporPressure name="Vapour pressure" units="Pa">
  <eqno value="101" />
  <A value="95.7043" />
  <B value="-8294.241" />
  <C value="-10.81822" />
  <D value="6.127187E-06" />
  <E value="2" />
  <Tmin units="K" value="175.3" />
  <Tmax units="K" value="584.1" />
  </VaporPressure>
<HeatOfVaporization name="Heat of vaporization" units="J/kmol">
  <eqno value="106" />
  <A value="6.4859E+07" />
  <B value="0.77992" />
  <C value="-0.72383" />
  <D value="0.38094" />
  <E value="-0.025388" />
  <Tmin units="K" value="175.3" />
  <Tmax units="K" value="562.58" />
  </HeatOfVaporization>
<SolidHeatCapacityCp name="Solid heat capacity" units="J/kmol/K">
  <eqno value="1" />
  <A value="236620" />
  <Tmin units="K" value="0" />
  <Tmax units="K" value="580.15" />
  </SolidHeatCapacityCp>
<LiquidHeatCapacityCp name="Liquid heat capacity" units="J/kmol/K">
  <eqno value="16" />
  <A value="198760" />
  <B value="65.432" />
  <C value="9.8123" />
  <D value="0.0039694" />
  <E value="8.4178E-07" />
  <Tmin units="K" value="175.3" />
  <Tmax units="K" value="450" />
  </LiquidHeatCapacityCp>
<IdealGasHeatCapacityCp name="Ideal gas heat capacity" units="J/kmol/K">
  <eqno value="16" />
  <A value="152990" />
  <B value="-805.71" />
  <C value="13.605" />
  <D value="-0.00024656" />
  <E value="5.3497E-08" />
  <Tmin units="K" value="200" />
  <Tmax units="K" value="1500" />
  </IdealGasHeatCapacityCp>
<SecondVirialCoefficient name="Second virial coefficient" units="m3/kmol">
  <eqno value="104" />
  <A value="0.34998" />
  <B value="-389.07" />
  <C value="-72.95" />
  <D value="-21323" />
  <E value="26825" />
  <Tmin units="K" value="290.5" />
  <Tmax units="K" value="1856.5" />
  </SecondVirialCoefficient>
<LiquidViscosity name="Liquid viscosity" units="Pa.s">
  <eqno value="101" />
  <A value="20.743" />
  <B value="-83.003" />
  <C value="-4.9404" />
  <D value="0.000004096" />
  <E value="2" />
  <Tmin units="K" value="175.3" />
  <Tmax units="K" value="473" />
  </LiquidViscosity>
<VaporViscosity name="Vapour viscosity" units="Pa.s">
  <eqno value="102" />
  <A value="0.0000002113" />
  <B value="0.66224" />
  <C value="141.56" />
  <D value="6932" />
  <Tmin units="K" value="175.3" />
  <Tmax units="K" value="1000" />
  </VaporViscosity>
<LiquidThermalConductivity name="Liquid thermal conductivity" units="W/m/K">
  <eqno value="16" />
  <A value="-0.067128" />
  <B value="2.4703" />
  <C value="-1.3291" />
  <D value="-0.0010011" />
  <E value="-2.5742E-07" />
  <Tmin units="K" value="175.3" />
  <Tmax units="K" value="523.15" />
  </LiquidThermalConductivity>
<VaporThermalConductivity name="Vapour thermal conductivity" units="W/m/K">
  <eqno value="102" />
  <A value="0.0036064" />
  <B value="0.57918" />
  <C value="1401.9" />
  <D value="287150" />
  <Tmin units="K" value="175.3" />
  <Tmax units="K" value="1000" />
  </VaporThermalConductivity>
<SurfaceTension name="Surface tension" units="N/m">
  <eqno value="16" />
  <A value="-0.01167" />
  <B value="44.906" />
  <C value="-3.3567" />
  <D value="0.00097712" />
  <E value="-0.0000052216" />
  <Tmin units="K" value="175.3" />
  <Tmax units="K" value="562.58" />
  </SurfaceTension>
<RPPHeatCapacityCp name="Ideal gas heat capacity (RPP)" units="J/kmol/K">
  <eqno value="4" />
  <A value="34113" />
  <B value="646.38" />
  <C value="-0.25439" />
  <D value="0.000025866" />
  <Tmin units="K" value="200" />
  <Tmax units="K" value="1500" />
  </RPPHeatCapacityCp>
<AntoineVaporPressure name="Antoine" units="Pa">
  <eqno value="10" />
  <A value="20.921" />
  <B value="3199" />
  <C value="-73.256" />
  <Tmin units="K" value="353.35" />
  <Tmax units="K" value="522.04" />
  </AntoineVaporPressure>
<LiquidViscosityRPS name="Liquid viscosity (RPS)" units="Pa.s">
  <eqno value="12" />
  <A value="-3.3266" />
  <B value="-0.013047" />
  <Tmin units="K" value="175.3" />
  <Tmax units="K" value="414.15" />
  </LiquidViscosityRPS>
<COSTALDVolume name="COSTLD characteristic volume (V*)" units="m3/kmol" value="0.506519" />
<DiameterLJ name="Lennard Jones diameter" units="m" value="7.988813E-10" />
<EnergyLJ name="Lennard Jones energy" units="K" value="246.6962" />
<RacketParameter name="Rackett parameter" units="_" value="0.247" />
<FullerVolume name="Fuller et al. diffusion volume" units="_" value="174.89" />
<MatthiasCopemanC2 name="Mathias-Copeman C2" units="_" value="-0.87345" />
<Parachor name="Parachor" units="kg0.25.m3/s0.5/kmol" value="0.0666012" />
<SpecificGravity name="Specific gravity" units="_" value="0.77463" />
<Charge name="Charge" units="_" value="0" />
<CostaldAcentricFactor name="SRK acentric factor" units="_" value="0.447646" />
<WilsonVolume name="Wilson volume" units="m3/kmol" value="0.17041" />
<UniquacR name="UNIQUAC r" units="_" value="6.0925" />
<UniquacQ name="UNIQUAC q" units="_" value="5.176" />
<MatthiasCopemanC3 name="Mathias-Copeman C3" units="_" value="1.06222" />
<ChaoSeaderAcentricFactor name="Chao-Seader acentric factor" units="_" value="0.447646" />
<ChaoSeaderSolubilityParameter name="Chao-Seader solubility parameter" units="J0.5/m1.5" value="15830" />
<ChaoSeaderLiquidVolume name="Chao-Seader liquid volume" units="m3/kmol" value="0.17041" />
<UnifacVLE name="UNIFAC">
  <group id="1" value="2" />
  <group id="2" value="5" />
  <group id="26" value="1" />
  </UnifacVLE>
<UnifacLLE name="UNIFAC-LLE">
  <group id="1" value="2" />
  <group id="2" value="5" />
  <group id="28" value="1" />
  </UnifacLLE>
<Asog name="ASOG">
  <group id="1" value="2" />
  <group id="2" value="6" />
  <group id="19" value="1" />
  </Asog>
<Umr name="UMR">
  <group id="1" value="2" />
  <group id="2" value="5" />
  <group id="26" value="1" />
  </Umr>
<ModifiedUnifac name="Modified UNIFAC">
  <group id="1" value="2" />
  <group id="2" value="5" />
  <group id="25" value="1" />
  </ModifiedUnifac>
<CAS name="CAS number" value="142-96-1" />
<Smiles name="SMILES" value="CCCCOCCCC" />
</compound>

