<compound>
<LibraryIndex name="Index" value="1854" />
<CompoundID name="Name" value="dichloroacetyl chloride" />
<StructureFormula name="Structure" value="CHCl2COCl" />
<Family name="Family" value="71" />
<CriticalTemperature name="Critical temperature" units="K" value="585" />
<CriticalPressure name="Critical pressure" units="Pa" value="4610000" />
<CriticalVolume name="Critical volume" units="m3/kmol" value="0.283" />
<CriticalCompressibility name="Critical compressibility factor" units="_" value="0.268" />
<NormalBoilingPointTemperature name="Normal boiling point" units="K" value="380.45" />
<NormalMeltingPointTemperature name="Melting point" units="K" value="230" />
<TriplePointTemperature name="Triple point temperature" units="K" value="230" />
<TriplePointPressure name="Triple point pressure" units="Pa" value="27.15" />
<MolecularWeight name="Molecular weight" units="kg/kmol" value="147.3877" />
<LiquidVolumeAtNormalBoilingPoint name="Liquid molar volume at normal boiling point" units="m3/kmol" value="0.0969971" />
<AcentricityFactor name="Acentric factor" units="_" value="0.308927" />
<RadiusOfGyration name="Radius of gyration" units="m" value="3.988E-10" />
<SolubilityParameter name="Solubility parameter" units="J0.5/m1.5" value="19510" />
<DipoleMoment name="Dipole moment" units="Coulomb.m" value="5.27E-30" />
<VanDerWaalsVolume name="Van der Waals volume" units="m3/kmol" value="0.05458" />
<VanDerWaalsArea name="Van der Waals area" units="m2/kmol" value="7.61E+08" />
<HeatOfFormation name="IG heat of formation" units="J/kmol" value="-2.4033E+08" />
<GibbsEnergyOfFormation name="IG Gibbs energy of formation" units="J/kmol" value="-1.915E+08" />
<AbsEntropy name="IG absolute entropy" units="J/kmol/K" value="350000" />
<HeatOfFusionAtMeltingPoint name="Heat of fusion at melting point" units="J/kmol" value="0" />
<HeatOfCombustion name="Standard net heat of combustion LHV" units="J/kmol" value="-6.2647E+08" />
<SolidDensity name="Solid density" units="kmol/m3">
  <eqno value="2" />
  <A value="12.9" />
  <B value="-5.7788E-17" />
  <Tmin units="K" value="0" />
  <Tmax units="K" value="9.5" />
  </SolidDensity>
<LiquidDensity name="Liquid density" units="kmol/m3">
  <eqno value="105" />
  <A value="0.94766" />
  <B value="0.26857" />
  <C value="585" />
  <D value="0.28586" />
  <Tmin units="K" value="230" />
  <Tmax units="K" value="585" />
  </LiquidDensity>
<VaporPressure name="Vapour pressure" units="Pa">
  <eqno value="101" />
  <A value="74.72886" />
  <B value="-6808.875" />
  <C value="-7.735182" />
  <D value="4.475716E-06" />
  <E value="2" />
  <Tmin units="K" value="230" />
  <Tmax units="K" value="585" />
  </VaporPressure>
<HeatOfVaporization name="Heat of vaporization" units="J/kmol">
  <eqno value="106" />
  <A value="1.182114E+08" />
  <B value="5.662305" />
  <C value="-14.25375" />
  <D value="15.19267" />
  <E value="-6.032208" />
  <Tmin units="K" value="230" />
  <Tmax units="K" value="585" />
  </HeatOfVaporization>
<LiquidHeatCapacityCp name="Liquid heat capacity" units="J/kmol/K">
  <eqno value="16" />
  <A value="140380" />
  <B value="-122.15" />
  <C value="7.1438" />
  <D value="0.0089927" />
  <E value="-3.0698E-07" />
  <Tmin units="K" value="292.5" />
  <Tmax units="K" value="438.75" />
  </LiquidHeatCapacityCp>
<IdealGasHeatCapacityCp name="Ideal gas heat capacity" units="J/kmol/K">
  <eqno value="16" />
  <A value="54272" />
  <B value="-346.01" />
  <C value="11.744" />
  <D value="-0.00014147" />
  <E value="6.1056E-08" />
  <Tmin units="K" value="230" />
  <Tmax units="K" value="1500" />
  </IdealGasHeatCapacityCp>
<SecondVirialCoefficient name="Second virial coefficient" units="m3/kmol">
  <eqno value="104" />
  <A value="0.1766" />
  <B value="-214.27" />
  <C value="-34.937" />
  <D value="-11826" />
  <E value="15252" />
  <Tmin units="K" value="292.5" />
  <Tmax units="K" value="1849.5" />
  </SecondVirialCoefficient>
<LiquidViscosity name="Liquid viscosity" units="Pa.s">
  <eqno value="101" />
  <A value="-11.762" />
  <B value="1691.3" />
  <C value="-0.020172" />
  <D value="2.8483E-09" />
  <E value="2" />
  <Tmin units="K" value="230" />
  <Tmax units="K" value="485" />
  </LiquidViscosity>
<VaporViscosity name="Vapour viscosity" units="Pa.s">
  <eqno value="102" />
  <A value="1.4668E-07" />
  <B value="0.7617" />
  <C value="110.57" />
  <D value="-0.0060267" />
  <Tmin units="K" value="230" />
  <Tmax units="K" value="1000" />
  </VaporViscosity>
<LiquidThermalConductivity name="Liquid thermal conductivity" units="W/m/K">
  <eqno value="16" />
  <A value="0.045516" />
  <B value="-168.82" />
  <C value="-0.6335" />
  <D value="-0.0052944" />
  <E value="0.0000014358" />
  <Tmin units="K" value="230" />
  <Tmax units="K" value="380.45" />
  </LiquidThermalConductivity>
<VaporThermalConductivity name="Vapour thermal conductivity" units="W/m/K">
  <eqno value="102" />
  <A value="0.00049754" />
  <B value="0.6638" />
  <C value="622.43" />
  <D value="-0.0085753" />
  <Tmin units="K" value="230" />
  <Tmax units="K" value="1000" />
  </VaporThermalConductivity>
<SurfaceTension name="Surface tension" units="N/m">
  <eqno value="16" />
  <A value="-0.011582" />
  <B value="124.7" />
  <C value="-3.6985" />
  <D value="0.0034242" />
  <E value="-0.0000087498" />
  <Tmin units="K" value="230" />
  <Tmax units="K" value="585" />
  </SurfaceTension>
<RPPHeatCapacityCp name="Ideal gas heat capacity (RPP)" units="J/kmol/K">
  <eqno value="4" />
  <A value="45446" />
  <B value="201.42" />
  <C value="-0.15256" />
  <D value="0.000042512" />
  <Tmin units="K" value="230" />
  <Tmax units="K" value="1500" />
  </RPPHeatCapacityCp>
<AntoineVaporPressure name="Antoine" units="Pa">
  <eqno value="10" />
  <A value="21.845" />
  <B value="3559.7" />
  <C value="-36.056" />
  <Tmin units="K" value="360.79" />
  <Tmax units="K" value="515.15" />
  </AntoineVaporPressure>
<LiquidViscosityRPS name="Liquid viscosity (RPS)" units="Pa.s">
  <eqno value="13" />
  <A value="5.3427" />
  <B value="-0.057555" />
  <C value="0.000063183" />
  <Tmin units="K" value="230" />
  <Tmax units="K" value="380.45" />
  </LiquidViscosityRPS>
<COSTALDVolume name="COSTLD characteristic volume (V*)" units="m3/kmol" value="0.290781" />
<DiameterLJ name="Lennard Jones diameter" units="m" value="5.948562E-10" />
<EnergyLJ name="Lennard Jones energy" units="K" value="333.6986" />
<FullerVolume name="Fuller et al. diffusion volume" units="_" value="103.22" />
<Parachor name="Parachor" units="kg0.25.m3/s0.5/kmol" value="0.0423" />
<SpecificGravity name="Specific gravity" units="_" value="1.5348" />
<Charge name="Charge" units="_" value="0" />
<CostaldAcentricFactor name="SRK acentric factor" units="_" value="0.370509" />
<WilsonVolume name="Wilson volume" units="m3/kmol" value="0.097018" />
<UniquacR name="UNIQUAC r" units="_" value="3.597891" />
<UniquacQ name="UNIQUAC q" units="_" value="3.044" />
<ChaoSeaderAcentricFactor name="Chao-Seader acentric factor" units="_" value="0.370509" />
<ChaoSeaderSolubilityParameter name="Chao-Seader solubility parameter" units="J0.5/m1.5" value="19942.4" />
<ChaoSeaderLiquidVolume name="Chao-Seader liquid volume" units="m3/kmol" value="0.097018" />
<CAS name="CAS number" value="79-36-7" />
<Smiles name="SMILES" value="ClC(Cl)C(=O)Cl" />
</compound>

