<compound>
<LibraryIndex name="Index" value="2717" />
<CompoundID name="Name" value="diethylenetriamine" />
<StructureFormula name="Structure" value="(H2NCH2CH2)2NH" />
<Family name="Family" value="37" />
<CriticalTemperature name="Critical temperature" units="K" value="676" />
<CriticalPressure name="Critical pressure" units="Pa" value="4220000" />
<CriticalVolume name="Critical volume" units="m3/kmol" value="0.426" />
<CriticalCompressibility name="Critical compressibility factor" units="_" value="0.257" />
<NormalBoilingPointTemperature name="Normal boiling point" units="K" value="480" />
<NormalMeltingPointTemperature name="Melting point" units="K" value="234" />
<TriplePointTemperature name="Triple point temperature" units="K" value="234.15" />
<TriplePointPressure name="Triple point pressure" units="Pa" value="0.0524649" />
<MolecularWeight name="Molecular weight" units="kg/kmol" value="103.1661" />
<LiquidVolumeAtNormalBoilingPoint name="Liquid molar volume at normal boiling point" units="m3/kmol" value="0.108088" />
<AcentricityFactor name="Acentric factor" units="_" value="0.70022" />
<RadiusOfGyration name="Radius of gyration" units="m" value="3.865E-10" />
<SolubilityParameter name="Solubility parameter" units="J0.5/m1.5" value="22210" />
<VanDerWaalsVolume name="Van der Waals volume" units="m3/kmol" value="0.07008" />
<VanDerWaalsArea name="Van der Waals area" units="m2/kmol" value="9.87E+08" />
<HeatOfFormation name="IG heat of formation" units="J/kmol" value="-5860000" />
<GibbsEnergyOfFormation name="IG Gibbs energy of formation" units="J/kmol" value="2.07293E+08" />
<AbsEntropy name="IG absolute entropy" units="J/kmol/K" value="444000" />
<HeatOfFusionAtMeltingPoint name="Heat of fusion at melting point" units="J/kmol" value="1.97E+07" />
<MatthiasCopemanC1 name="Mathias-Copeman C1" units="_" value="1.15789" />
<HeatOfCombustion name="Standard net heat of combustion LHV" units="J/kmol" value="-3.08E+09" />
<SolidDensity name="Solid density" units="kmol/m3">
  <eqno value="2" />
  <A value="12.376" />
  <B value="-0.005886" />
  <C value="0" />
  <D value="0" />
  <E value="0" />
  <Tmin units="K" value="93.66" />
  <Tmax units="K" value="234.15" />
  </SolidDensity>
<LiquidDensity name="Liquid density" units="kmol/m3">
  <eqno value="105" />
  <A value="0.75082" />
  <B value="0.25686" />
  <C value="676" />
  <D value="0.285" />
  <Tmin units="K" value="234.15" />
  <Tmax units="K" value="676" />
  </LiquidDensity>
<VaporPressure name="Vapour pressure" units="Pa">
  <eqno value="101" />
  <A value="100.1854" />
  <B value="-10608.36" />
  <C value="-10.96201" />
  <D value="4.74905E-06" />
  <E value="2" />
  <Tmin units="K" value="234.15" />
  <Tmax units="K" value="676" />
  </VaporPressure>
<HeatOfVaporization name="Heat of vaporization" units="J/kmol">
  <eqno value="106" />
  <A value="6.200873E+07" />
  <B value="-0.521717" />
  <C value="2.922507" />
  <D value="-3.785965" />
  <E value="1.591946" />
  <Tmin units="K" value="234.15" />
  <Tmax units="K" value="676" />
  </HeatOfVaporization>
<SolidHeatCapacityCp name="Solid heat capacity" units="J/kmol/K">
  <eqno value="100" />
  <A value="4677.2" />
  <B value="636.48" />
  <C value="-1.3531" />
  <D value="0.0038102" />
  <E value="-0.0000047797" />
  <Tmin units="K" value="50" />
  <Tmax units="K" value="234.15" />
  </SolidHeatCapacityCp>
<LiquidHeatCapacityCp name="Liquid heat capacity" units="J/kmol/K">
  <eqno value="16" />
  <A value="42291" />
  <B value="-130.86" />
  <C value="11.696" />
  <D value="0.0024243" />
  <E value="-0.0000011576" />
  <Tmin units="K" value="338" />
  <Tmax units="K" value="498" />
  </LiquidHeatCapacityCp>
<IdealGasHeatCapacityCp name="Ideal gas heat capacity" units="J/kmol/K">
  <eqno value="16" />
  <A value="73737" />
  <B value="-451.7" />
  <C value="12.705" />
  <D value="0.00030197" />
  <E value="-1.0181E-07" />
  <Tmin units="K" value="273" />
  <Tmax units="K" value="1500" />
  </IdealGasHeatCapacityCp>
<SecondVirialCoefficient name="Second virial coefficient" units="m3/kmol">
  <eqno value="104" />
  <A value="0.20692" />
  <B value="-343.64" />
  <C value="-96.031" />
  <D value="-90293" />
  <E value="176600" />
  <Tmin units="K" value="338" />
  <Tmax units="K" value="2000" />
  </SecondVirialCoefficient>
<LiquidViscosity name="Liquid viscosity" units="Pa.s">
  <eqno value="101" />
  <A value="-10.117" />
  <B value="2075.7" />
  <C value="-0.40711" />
  <D value="6.9322E-07" />
  <E value="2" />
  <Tmin units="K" value="234.15" />
  <Tmax units="K" value="576" />
  </LiquidViscosity>
<VaporViscosity name="Vapour viscosity" units="Pa.s">
  <eqno value="102" />
  <A value="5.7285E-08" />
  <B value="0.85783" />
  <C value="72.519" />
  <D value="-3817.5" />
  <Tmin units="K" value="234.15" />
  <Tmax units="K" value="1000" />
  </VaporViscosity>
<LiquidThermalConductivity name="Liquid thermal conductivity" units="W/m/K">
  <eqno value="16" />
  <A value="-0.078667" />
  <B value="1.4114" />
  <C value="-1.3167" />
  <D value="-0.00041656" />
  <E value="-8.7844E-07" />
  <Tmin units="K" value="234.15" />
  <Tmax units="K" value="480.25" />
  </LiquidThermalConductivity>
<VaporThermalConductivity name="Vapour thermal conductivity" units="W/m/K">
  <eqno value="102" />
  <A value="0.00017737" />
  <B value="0.94914" />
  <C value="591.08" />
  <D value="27011" />
  <Tmin units="K" value="234.15" />
  <Tmax units="K" value="1000" />
  </VaporThermalConductivity>
<SurfaceTension name="Surface tension" units="N/m">
  <eqno value="16" />
  <A value="-0.021703" />
  <B value="47.519" />
  <C value="-2.6592" />
  <D value="-0.000080847" />
  <E value="-0.0000026267" />
  <Tmin units="K" value="234.15" />
  <Tmax units="K" value="676" />
  </SurfaceTension>
<RPPHeatCapacityCp name="Ideal gas heat capacity (RPP)" units="J/kmol/K">
  <eqno value="4" />
  <A value="5303.6" />
  <B value="589.73" />
  <C value="-0.34089" />
  <D value="0.000076082" />
  <Tmin units="K" value="273" />
  <Tmax units="K" value="1500" />
  </RPPHeatCapacityCp>
<AntoineVaporPressure name="Antoine" units="Pa">
  <eqno value="10" />
  <A value="23.134" />
  <B value="5149.9" />
  <C value="-36.704" />
  <Tmin units="K" value="420.19" />
  <Tmax units="K" value="606.23" />
  </AntoineVaporPressure>
<LiquidViscosityRPS name="Liquid viscosity (RPS)" units="Pa.s">
  <eqno value="12" />
  <A value="0.32144" />
  <B value="-0.01858" />
  <Tmin units="K" value="234.15" />
  <Tmax units="K" value="480.25" />
  </LiquidViscosityRPS>
<COSTALDVolume name="COSTLD characteristic volume (V*)" units="m3/kmol" value="0.377332" />
<DiameterLJ name="Lennard Jones diameter" units="m" value="7.169053E-10" />
<EnergyLJ name="Lennard Jones energy" units="K" value="331.6035" />
<RacketParameter name="Rackett parameter" units="_" value="0.257" />
<FullerVolume name="Fuller et al. diffusion volume" units="_" value="100.082" />
<MatthiasCopemanC2 name="Mathias-Copeman C2" units="_" value="0" />
<Parachor name="Parachor" units="kg0.25.m3/s0.5/kmol" value="0.048963" />
<SpecificGravity name="Specific gravity" units="_" value="0.880407" />
<Charge name="Charge" units="_" value="0" />
<CostaldAcentricFactor name="SRK acentric factor" units="_" value="0.70022" />
<WilsonVolume name="Wilson volume" units="m3/kmol" value="0.108088" />
<UniquacR name="UNIQUAC r" units="_" value="4.6198" />
<UniquacQ name="UNIQUAC q" units="_" value="3.948" />
<MatthiasCopemanC3 name="Mathias-Copeman C3" units="_" value="0" />
<ChaoSeaderAcentricFactor name="Chao-Seader acentric factor" units="_" value="0.70022" />
<ChaoSeaderSolubilityParameter name="Chao-Seader solubility parameter" units="J0.5/m1.5" value="22210" />
<ChaoSeaderLiquidVolume name="Chao-Seader liquid volume" units="m3/kmol" value="0.108088" />
<UnifacVLE name="UNIFAC">
  <group id="2" value="1" />
  <group id="30" value="2" />
  <group id="33" value="1" />
  </UnifacVLE>
<Asog name="ASOG">
  <group id="2" value="4" />
  <group id="29" value="2" />
  <group id="30" value="1" />
  </Asog>
<Umr name="UMR">
  <group id="2" value="1" />
  <group id="30" value="2" />
  <group id="33" value="1" />
  </Umr>
<ModifiedUnifac name="Modified UNIFAC">
  <group id="2" value="1" />
  <group id="29" value="2" />
  <group id="32" value="1" />
  </ModifiedUnifac>
<CAS name="CAS number" value="111-40-0" />
<Smiles name="SMILES" value="NCCNCCN" />
</compound>

