<compound>
<LibraryIndex name="Index" value="1818" />
<CompoundID name="Name" value="diethyl sulfide" />
<StructureFormula name="Structure" value="CH3CH2SCH2CH3" />
<Family name="Family" value="42" />
<CriticalTemperature name="Critical temperature" units="K" value="557" />
<CriticalPressure name="Critical pressure" units="Pa" value="3960000" />
<CriticalVolume name="Critical volume" units="m3/kmol" value="0.318" />
<CriticalCompressibility name="Critical compressibility factor" units="_" value="0.269" />
<NormalBoilingPointTemperature name="Normal boiling point" units="K" value="365.25" />
<NormalMeltingPointTemperature name="Melting point" units="K" value="169.22" />
<TriplePointTemperature name="Triple point temperature" units="K" value="169.2" />
<TriplePointPressure name="Triple point pressure" units="Pa" value="0.099321" />
<MolecularWeight name="Molecular weight" units="kg/kmol" value="90.18719" />
<LiquidVolumeAtNormalBoilingPoint name="Liquid molar volume at normal boiling point" units="m3/kmol" value="0.10851" />
<AcentricityFactor name="Acentric factor" units="_" value="0.295" />
<RadiusOfGyration name="Radius of gyration" units="m" value="3.212E-10" />
<SolubilityParameter name="Solubility parameter" units="J0.5/m1.5" value="17490" />
<DipoleMoment name="Dipole moment" units="Coulomb.m" value="5.14E-30" />
<VanDerWaalsVolume name="Van der Waals volume" units="m3/kmol" value="0.0586" />
<VanDerWaalsArea name="Van der Waals area" units="m2/kmol" value="8.24E+08" />
<HeatOfFormation name="IG heat of formation" units="J/kmol" value="-8.347E+07" />
<GibbsEnergyOfFormation name="IG Gibbs energy of formation" units="J/kmol" value="1.778E+07" />
<AbsEntropy name="IG absolute entropy" units="J/kmol/K" value="368000" />
<HeatOfFusionAtMeltingPoint name="Heat of fusion at melting point" units="J/kmol" value="1.19035E+07" />
<MatthiasCopemanC1 name="Mathias-Copeman C1" units="_" value="0.90128" />
<HeatOfCombustion name="Standard net heat of combustion LHV" units="J/kmol" value="-2.9607E+09" />
<SolidDensity name="Solid density" units="kmol/m3">
  <eqno value="2" />
  <A value="10.811" />
  <B value="-3.1253E-09" />
  <C value="0" />
  <D value="0" />
  <E value="0" />
  <Tmin units="K" value="83.15" />
  <Tmax units="K" value="92.65" />
  </SolidDensity>
<LiquidDensity name="Liquid density" units="kmol/m3">
  <eqno value="105" />
  <A value="0.71845" />
  <B value="0.24674" />
  <C value="557.16" />
  <D value="0.25292" />
  <Tmin units="K" value="169.2" />
  <Tmax units="K" value="557.15" />
  </LiquidDensity>
<VaporPressure name="Vapour pressure" units="Pa">
  <eqno value="101" />
  <A value="70.99138" />
  <B value="-6108.92" />
  <C value="-7.37143" />
  <D value="5.835752E-06" />
  <E value="2" />
  <Tmin units="K" value="169.2" />
  <Tmax units="K" value="557.15" />
  </VaporPressure>
<HeatOfVaporization name="Heat of vaporization" units="J/kmol">
  <eqno value="106" />
  <A value="4.6317E+07" />
  <B value="0.40563" />
  <C value="-0.17525" />
  <D value="0.12561" />
  <E value="0.018959" />
  <Tmin units="K" value="169.2" />
  <Tmax units="K" value="536.73" />
  </HeatOfVaporization>
<SolidHeatCapacityCp name="Solid heat capacity" units="J/kmol/K">
  <eqno value="100" />
  <A value="-11543" />
  <B value="1074.2" />
  <C value="-1.061" />
  <D value="-0.019344" />
  <E value="0.000072553" />
  <Tmin units="K" value="15.97" />
  <Tmax units="K" value="159.4" />
  </SolidHeatCapacityCp>
<LiquidHeatCapacityCp name="Liquid heat capacity" units="J/kmol/K">
  <eqno value="16" />
  <A value="145900" />
  <B value="1485.7" />
  <C value="-9.9348" />
  <D value="0.077005" />
  <E value="-0.000088463" />
  <Tmin units="K" value="181.95" />
  <Tmax units="K" value="322.08" />
  </LiquidHeatCapacityCp>
<IdealGasHeatCapacityCp name="Ideal gas heat capacity" units="J/kmol/K">
  <eqno value="16" />
  <A value="84916" />
  <B value="-751.54" />
  <C value="12.969" />
  <D value="-0.00026179" />
  <E value="6.4336E-08" />
  <Tmin units="K" value="200" />
  <Tmax units="K" value="1500" />
  </IdealGasHeatCapacityCp>
<SecondVirialCoefficient name="Second virial coefficient" units="m3/kmol">
  <eqno value="104" />
  <A value="0.16441" />
  <B value="-234.17" />
  <C value="-39.709" />
  <D value="11874" />
  <E value="-35686" />
  <Tmin units="K" value="278.5" />
  <Tmax units="K" value="1949.5" />
  </SecondVirialCoefficient>
<LiquidViscosity name="Liquid viscosity" units="Pa.s">
  <eqno value="101" />
  <A value="-2.9987" />
  <B value="606.92" />
  <C value="-1.2077" />
  <D value="8.2651E-07" />
  <E value="2" />
  <Tmin units="K" value="225" />
  <Tmax units="K" value="457" />
  </LiquidViscosity>
<VaporViscosity name="Vapour viscosity" units="Pa.s">
  <eqno value="102" />
  <A value="6.8477E-08" />
  <B value="0.85168" />
  <C value="55.152" />
  <D value="236.99" />
  <Tmin units="K" value="169.2" />
  <Tmax units="K" value="1000" />
  </VaporViscosity>
<LiquidThermalConductivity name="Liquid thermal conductivity" units="W/m/K">
  <eqno value="16" />
  <A value="-0.07619" />
  <B value="7.9978" />
  <C value="-1.3835" />
  <D value="-0.00020735" />
  <E value="-0.0000016592" />
  <Tmin units="K" value="169.2" />
  <Tmax units="K" value="365.25" />
  </LiquidThermalConductivity>
<VaporThermalConductivity name="Vapour thermal conductivity" units="W/m/K">
  <eqno value="102" />
  <A value="0.0017352" />
  <B value="0.67658" />
  <C value="1116.5" />
  <D value="181260" />
  <Tmin units="K" value="169.2" />
  <Tmax units="K" value="1000" />
  </VaporThermalConductivity>
<SurfaceTension name="Surface tension" units="N/m">
  <eqno value="16" />
  <A value="-0.014023" />
  <B value="40.038" />
  <C value="-3.1023" />
  <D value="0.00060236" />
  <E value="-0.0000051915" />
  <Tmin units="K" value="169.2" />
  <Tmax units="K" value="536.73" />
  </SurfaceTension>
<RPPHeatCapacityCp name="Ideal gas heat capacity (RPP)" units="J/kmol/K">
  <eqno value="100" />
  <A value="36043" />
  <B value="216.86" />
  <C value="0.32917" />
  <D value="-0.00057212" />
  <E value="2.4112E-07" />
  <Tmin units="K" value="273" />
  <Tmax units="K" value="1000" />
  </RPPHeatCapacityCp>
<RelativeStaticPermittivity name="Relative static permittivity" units="_">
  <eqno value="120" />
  <A value="-4.458" />
  <B value="-2860" />
  <C value="-17.16" />
  <Tmin units="K" value="280" />
  <Tmax units="K" value="450" />
  </RelativeStaticPermittivity>
<AntoineVaporPressure name="Antoine" units="Pa">
  <eqno value="10" />
  <A value="21.747" />
  <B value="3457.8" />
  <C value="-26.458" />
  <Tmin units="K" value="337.07" />
  <Tmax units="K" value="495.89" />
  </AntoineVaporPressure>
<LiquidViscosityRPS name="Liquid viscosity (RPS)" units="Pa.s">
  <eqno value="12" />
  <A value="-4.6508" />
  <B value="-0.01037" />
  <Tmin units="K" value="225" />
  <Tmax units="K" value="365.25" />
  </LiquidViscosityRPS>
<COSTALDVolume name="COSTLD characteristic volume (V*)" units="m3/kmol" value="0.312895" />
<DiameterLJ name="Lennard Jones diameter" units="m" value="6.156747E-10" />
<EnergyLJ name="Lennard Jones energy" units="K" value="322.0153" />
<RacketParameter name="Rackett parameter" units="_" value="0.269" />
<FullerVolume name="Fuller et al. diffusion volume" units="_" value="103.932" />
<MatthiasCopemanC2 name="Mathias-Copeman C2" units="_" value="0" />
<Parachor name="Parachor" units="kg0.25.m3/s0.5/kmol" value="0.0429092" />
<SpecificGravity name="Specific gravity" units="_" value="0.837" />
<Charge name="Charge" units="_" value="0" />
<CostaldAcentricFactor name="SRK acentric factor" units="_" value="0.295" />
<WilsonVolume name="Wilson volume" units="m3/kmol" value="0.10851" />
<UniquacR name="UNIQUAC r" units="_" value="3.8629" />
<UniquacQ name="UNIQUAC q" units="_" value="3.296" />
<MatthiasCopemanC3 name="Mathias-Copeman C3" units="_" value="0" />
<ChaoSeaderAcentricFactor name="Chao-Seader acentric factor" units="_" value="0.295" />
<ChaoSeaderSolubilityParameter name="Chao-Seader solubility parameter" units="J0.5/m1.5" value="17490" />
<ChaoSeaderLiquidVolume name="Chao-Seader liquid volume" units="m3/kmol" value="0.10851" />
<UnifacVLE name="UNIFAC">
  <group id="1" value="2" />
  <group id="2" value="1" />
  <group id="103" value="1" />
  </UnifacVLE>
<Umr name="UMR">
  <group id="1" value="2" />
  <group id="2" value="1" />
  <group id="103" value="1" />
  </Umr>
<ModifiedUnifac name="Modified UNIFAC">
  <group id="1" value="2" />
  <group id="2" value="1" />
  <group id="123" value="1" />
  </ModifiedUnifac>
<CAS name="CAS number" value="352-93-2" />
<Smiles name="SMILES" value="CCSCC" />
</compound>

