<compound>
<LibraryIndex name="Index" value="1724" />
<CompoundID name="Name" value="diethanolamine" />
<StructureFormula name="Structure" value="(HOCH2CH2)2NH" />
<Family name="Family" value="68" />
<CriticalTemperature name="Critical temperature" units="K" value="736.6" />
<CriticalPressure name="Critical pressure" units="Pa" value="4720000" />
<CriticalVolume name="Critical volume" units="m3/kmol" value="0.349" />
<CriticalCompressibility name="Critical compressibility factor" units="_" value="0.243" />
<NormalBoilingPointTemperature name="Normal boiling point" units="K" value="542" />
<NormalMeltingPointTemperature name="Melting point" units="K" value="301.15" />
<TriplePointTemperature name="Triple point temperature" units="K" value="301.15" />
<TriplePointPressure name="Triple point pressure" units="Pa" value="0.102031" />
<MolecularWeight name="Molecular weight" units="kg/kmol" value="105.1356" />
<LiquidVolumeAtNormalBoilingPoint name="Liquid molar volume at normal boiling point" units="m3/kmol" value="0.096244" />
<AcentricityFactor name="Acentric factor" units="_" value="0.991515" />
<RadiusOfGyration name="Radius of gyration" units="m" value="3.907E-10" />
<SolubilityParameter name="Solubility parameter" units="J0.5/m1.5" value="29260" />
<DipoleMoment name="Dipole moment" units="Coulomb.m" value="2.84E-30" />
<VanDerWaalsVolume name="Van der Waals volume" units="m3/kmol" value="0.06508" />
<VanDerWaalsArea name="Van der Waals area" units="m2/kmol" value="9.31E+08" />
<HeatOfFormation name="IG heat of formation" units="J/kmol" value="-3.73E+08" />
<GibbsEnergyOfFormation name="IG Gibbs energy of formation" units="J/kmol" value="-2.2574E+08" />
<AbsEntropy name="IG absolute entropy" units="J/kmol/K" value="429000" />
<HeatOfFusionAtMeltingPoint name="Heat of fusion at melting point" units="J/kmol" value="2.5104E+07" />
<MatthiasCopemanC1 name="Mathias-Copeman C1" units="_" value="1.85" />
<HeatOfCombustion name="Standard net heat of combustion LHV" units="J/kmol" value="-2.4439E+09" />
<SolidDensity name="Solid density" units="kmol/m3">
  <eqno value="2" />
  <A value="13.174" />
  <B value="-0.0048077" />
  <C value="0" />
  <D value="0" />
  <E value="0" />
  <Tmin units="K" value="120.46" />
  <Tmax units="K" value="301.15" />
  </SolidDensity>
<LiquidDensity name="Liquid density" units="kmol/m3">
  <eqno value="105" />
  <A value="0.5251" />
  <B value="0.20924" />
  <C value="736.61" />
  <D value="0.18363" />
  <Tmin units="K" value="283.15" />
  <Tmax units="K" value="736.6" />
  </LiquidDensity>
<VaporPressure name="Vapour pressure" units="Pa">
  <eqno value="10" />
  <A value="23.735" />
  <B value="5441.7" />
  <C value="-95.519" />
  <Tmin units="K" value="301.15" />
  <Tmax units="K" value="736.6" />
  </VaporPressure>
<HeatOfVaporization name="Heat of vaporization" units="J/kmol">
  <eqno value="106" />
  <A value="7.90134E+07" />
  <B value="-1.865152" />
  <C value="6.820965" />
  <D value="-7.963053" />
  <E value="3.251551" />
  <Tmin units="K" value="301.15" />
  <Tmax units="K" value="713.68" />
  </HeatOfVaporization>
<SolidHeatCapacityCp name="Solid heat capacity" units="J/kmol/K">
  <eqno value="100" />
  <A value="5726.4" />
  <B value="678.12" />
  <C value="-1.2202" />
  <D value="0.0028487" />
  <E value="-0.0000029189" />
  <Tmin units="K" value="50" />
  <Tmax units="K" value="301.15" />
  </SolidHeatCapacityCp>
<LiquidHeatCapacityCp name="Liquid heat capacity" units="J/kmol/K">
  <eqno value="4" />
  <A value="88234.68" />
  <B value="483.2566" />
  <C value="0.294569" />
  <D value="-0.000214761" />
  <Tmin units="K" value="200" />
  <Tmax units="K" value="715" />
  </LiquidHeatCapacityCp>
<IdealGasHeatCapacityCp name="Ideal gas heat capacity" units="J/kmol/K">
  <eqno value="16" />
  <A value="92216" />
  <B value="-624.1" />
  <C value="12.938" />
  <D value="-0.00014779" />
  <E value="6.6337E-08" />
  <Tmin units="K" value="273" />
  <Tmax units="K" value="1500.1" />
  </IdealGasHeatCapacityCp>
<SecondVirialCoefficient name="Second virial coefficient" units="m3/kmol">
  <eqno value="104" />
  <A value="0.25716" />
  <B value="-224.15" />
  <C value="-187.3" />
  <D value="-175320" />
  <E value="231800" />
  <Tmin units="K" value="368.3" />
  <Tmax units="K" value="1500" />
  </SecondVirialCoefficient>
<LiquidViscosity name="Liquid viscosity" units="Pa.s">
  <eqno value="101" />
  <A value="-0.28702" />
  <B value="6080.5" />
  <C value="-3.8708" />
  <D value="0.00001517" />
  <E value="2" />
  <Tmin units="K" value="293.15" />
  <Tmax units="K" value="589.28" />
  </LiquidViscosity>
<VaporViscosity name="Vapour viscosity" units="Pa.s">
  <eqno value="102" />
  <A value="4.7852E-08" />
  <B value="0.89857" />
  <C value="99.058" />
  <D value="-7265.2" />
  <Tmin units="K" value="301.15" />
  <Tmax units="K" value="1000" />
  </VaporViscosity>
<LiquidThermalConductivity name="Liquid thermal conductivity" units="W/m/K">
  <eqno value="16" />
  <A value="-0.91328" />
  <B value="16.824" />
  <C value="-0.15997" />
  <D value="0.0011516" />
  <E value="-0.0000013756" />
  <Tmin units="K" value="301.15" />
  <Tmax units="K" value="673.15" />
  </LiquidThermalConductivity>
<VaporThermalConductivity name="Vapour thermal conductivity" units="W/m/K">
  <eqno value="102" />
  <A value="-10221" />
  <B value="0.42596" />
  <C value="-2.5172E+09" />
  <D value="-7.9932E+10" />
  <Tmin units="K" value="301.15" />
  <Tmax units="K" value="1000" />
  </VaporThermalConductivity>
<SurfaceTension name="Surface tension" units="N/m">
  <eqno value="16" />
  <A value="-0.146398" />
  <B value="45.86264" />
  <C value="-1.696703" />
  <D value="-0.000291273" />
  <E value="-1.334366E-07" />
  <Tmin units="K" value="301.15" />
  <Tmax units="K" value="736.6" />
  </SurfaceTension>
<RPPHeatCapacityCp name="Ideal gas heat capacity (RPP)" units="J/kmol/K">
  <eqno value="4" />
  <A value="9793.4" />
  <B value="530.15" />
  <C value="-0.31974" />
  <D value="0.000077668" />
  <Tmin units="K" value="273" />
  <Tmax units="K" value="1500.1" />
  </RPPHeatCapacityCp>
<RelativeStaticPermittivity name="Relative static permittivity" units="_">
  <eqno value="120" />
  <A value="-13.04345" />
  <B value="-12719.43" />
  <C value="32.79742" />
  <Tmin units="K" value="303" />
  <Tmax units="K" value="715" />
  </RelativeStaticPermittivity>
<AntoineVaporPressure name="Antoine" units="Pa">
  <eqno value="10" />
  <A value="23.735" />
  <B value="5441.7" />
  <C value="-95.519" />
  <Tmin units="K" value="430" />
  <Tmax units="K" value="640" />
  </AntoineVaporPressure>
<LiquidViscosityRPS name="Liquid viscosity (RPS)" units="Pa.s">
  <eqno value="12" />
  <A value="8.1033" />
  <B value="-0.031788" />
  <Tmin units="K" value="293.15" />
  <Tmax units="K" value="589.28" />
  </LiquidViscosityRPS>
<COSTALDVolume name="COSTLD characteristic volume (V*)" units="m3/kmol" value="0.349015" />
<DiameterLJ name="Lennard Jones diameter" units="m" value="7.174515E-10" />
<EnergyLJ name="Lennard Jones energy" units="K" value="286.6829" />
<RacketParameter name="Rackett parameter" units="_" value="0.243" />
<FullerVolume name="Fuller et al. diffusion volume" units="_" value="105.77" />
<MatthiasCopemanC2 name="Mathias-Copeman C2" units="_" value="0" />
<Parachor name="Parachor" units="kg0.25.m3/s0.5/kmol" value="0.0453451" />
<SpecificGravity name="Specific gravity" units="_" value="1.101108" />
<Charge name="Charge" units="_" value="0" />
<CostaldAcentricFactor name="SRK acentric factor" units="_" value="0.991515" />
<WilsonVolume name="Wilson volume" units="m3/kmol" value="0.096244" />
<UniquacR name="UNIQUAC r" units="_" value="5.2302" />
<UniquacQ name="UNIQUAC q" units="_" value="4.956" />
<MatthiasCopemanC3 name="Mathias-Copeman C3" units="_" value="0" />
<ChaoSeaderAcentricFactor name="Chao-Seader acentric factor" units="_" value="0.952882" />
<ChaoSeaderSolubilityParameter name="Chao-Seader solubility parameter" units="J0.5/m1.5" value="29260" />
<ChaoSeaderLiquidVolume name="Chao-Seader liquid volume" units="m3/kmol" value="0.096244" />
<UnifacVLE name="UNIFAC">
  <group id="2" value="3" />
  <group id="15" value="2" />
  <group id="33" value="1" />
  </UnifacVLE>
<Asog name="ASOG">
  <group id="2" value="4" />
  <group id="15" value="2" />
  <group id="30" value="1" />
  </Asog>
<Umr name="UMR">
  <group id="2" value="3" />
  <group id="15" value="2" />
  <group id="33" value="1" />
  </Umr>
<ModifiedUnifac name="Modified UNIFAC">
  <group id="2" value="3" />
  <group id="14" value="2" />
  <group id="32" value="1" />
  </ModifiedUnifac>
<CAS name="CAS number" value="111-42-2" />
<Smiles name="SMILES" value="OCCNCCO" />
</compound>

