<compound>
<LibraryIndex name="Index" value="1392" />
<CompoundID name="Name" value="diethyl carbonate" />
<StructureFormula name="Structure" value="CH3CH2(OCOO)CH2CH3" />
<Family name="Family" value="45" />
<CriticalTemperature name="Critical temperature" units="K" value="577" />
<CriticalPressure name="Critical pressure" units="Pa" value="3420000" />
<CriticalVolume name="Critical volume" units="m3/kmol" value="0.35725" />
<CriticalCompressibility name="Critical compressibility factor" units="_" value="0.254676" />
<NormalBoilingPointTemperature name="Normal boiling point" units="K" value="399.95" />
<NormalMeltingPointTemperature name="Melting point" units="K" value="230.15" />
<MolecularWeight name="Molecular weight" units="kg/kmol" value="118.1311" />
<LiquidVolumeAtNormalBoilingPoint name="Liquid molar volume at normal boiling point" units="m3/kmol" value="0.12721" />
<AcentricityFactor name="Acentric factor" units="_" value="0.3544" />
<SolubilityParameter name="Solubility parameter" units="J0.5/m1.5" value="18727.86" />
<VanDerWaalsVolume name="Van der Waals volume" units="m3/kmol" value="0.0717693" />
<VanDerWaalsArea name="Van der Waals area" units="m2/kmol" value="1.0415E+09" />
<HeatOfFormation name="IG heat of formation" units="J/kmol" value="-6.391E+08" />
<GibbsEnergyOfFormation name="IG Gibbs energy of formation" units="J/kmol" value="-4.64651E+08" />
<AbsEntropy name="IG absolute entropy" units="J/kmol/K" value="404000" />
<HeatOfFusionAtMeltingPoint name="Heat of fusion at melting point" units="J/kmol" value="9510000" />
<MatthiasCopemanC1 name="Mathias-Copeman C1" units="_" value="1.16122" />
<HeatOfCombustion name="Standard net heat of combustion LHV" units="J/kmol" value="-2.4954E+09" />
<LiquidDensity name="Liquid density" units="kmol/m3">
  <eqno value="105" />
  <A value="0.668" />
  <B value="0.25" />
  <C value="577" />
  <D value="0.29" />
  <Tmin units="K" value="263.15" />
  <Tmax units="K" value="577" />
  </LiquidDensity>
<VaporPressure name="Vapour pressure" units="Pa">
  <eqno value="10" />
  <A value="20.45386" />
  <B value="2817.834" />
  <C value="-84.304" />
  <Tmin units="K" value="273" />
  <Tmax units="K" value="577" />
  </VaporPressure>
<HeatOfVaporization name="Heat of vaporization" units="J/kmol">
  <eqno value="106" />
  <A value="5.939572E+07" />
  <B value="0.38" />
  <C value="0" />
  <D value="0" />
  <E value="0" />
  <Tmin units="K" value="279.965" />
  <Tmax units="K" value="577" />
  </HeatOfVaporization>
<SolidHeatCapacityCp name="Solid heat capacity" units="J/kmol/K">
  <eqno value="1" />
  <A value="170310" />
  <Tmin units="K" value="0" />
  <Tmax units="K" value="423.12" />
  </SolidHeatCapacityCp>
<IdealGasHeatCapacityCp name="Ideal gas heat capacity" units="J/kmol/K">
  <eqno value="16" />
  <A value="61921.97" />
  <B value="-495.7152" />
  <C value="12.91823" />
  <D value="0" />
  <E value="0" />
  <Tmin units="K" value="126.9366" />
  <Tmax units="K" value="1500" />
  </IdealGasHeatCapacityCp>
<LiquidViscosity name="Liquid viscosity" units="Pa.s">
  <eqno value="101" />
  <A value="-52.2135" />
  <B value="2618.11" />
  <C value="6.516931" />
  <D value="-0.0000100719" />
  <E value="2" />
  <Tmin units="K" value="263.15" />
  <Tmax units="K" value="577" />
  </LiquidViscosity>
<VaporViscosity name="Vapour viscosity" units="Pa.s">
  <eqno value="2" />
  <A value="-0.0000012839" />
  <B value="1.9951E-08" />
  <Tmin units="K" value="263.12" />
  <Tmax units="K" value="1000" />
  </VaporViscosity>
<SurfaceTension name="Surface tension" units="N/m">
  <eqno value="116" />
  <A value="0" />
  <B value="0" />
  <C value="0" />
  <D value="0.0229831" />
  <E value="0.0229831" />
  <Tmin units="K" value="230.15" />
  <Tmax units="K" value="577" />
  </SurfaceTension>
<RPPHeatCapacityCp name="Ideal gas heat capacity (RPP)" units="J/kmol/K">
  <eqno value="4" />
  <A value="8394.8" />
  <B value="358.12" />
  <C value="-0.17146" />
  <D value="0.000031221" />
  <Tmin units="K" value="126.94" />
  <Tmax units="K" value="1500" />
  </RPPHeatCapacityCp>
<RelativeStaticPermittivity name="Relative static permittivity" units="_">
  <eqno value="120" />
  <A value="-2.064" />
  <B value="-1410" />
  <C value="-8.46" />
  <Tmin units="K" value="280" />
  <Tmax units="K" value="450" />
  </RelativeStaticPermittivity>
<AntoineVaporPressure name="Antoine" units="Pa">
  <eqno value="10" />
  <A value="21.72793" />
  <B value="3499.52" />
  <C value="-55.48797" />
  <Tmin units="K" value="263" />
  <Tmax units="K" value="577" />
  </AntoineVaporPressure>
<COSTALDVolume name="COSTLD characteristic volume (V*)" units="m3/kmol" value="0.386994" />
<DiameterLJ name="Lennard Jones diameter" units="m" value="5.206992E-10" />
<EnergyLJ name="Lennard Jones energy" units="K" value="327.1211" />
<RacketParameter name="Rackett parameter" units="_" value="0.254676" />
<FullerVolume name="Fuller et al. diffusion volume" units="_" value="120.93" />
<MatthiasCopemanC2 name="Mathias-Copeman C2" units="_" value="0.3544" />
<Parachor name="Parachor" units="kg0.25.m3/s0.5/kmol" value="0.0457018" />
<SpecificGravity name="Specific gravity" units="_" value="0.975" />
<Charge name="Charge" units="_" value="0" />
<CostaldAcentricFactor name="SRK acentric factor" units="_" value="0.3544" />
<WilsonVolume name="Wilson volume" units="m3/kmol" value="0.09721" />
<UniquacR name="UNIQUAC r" units="_" value="4.731" />
<UniquacQ name="UNIQUAC q" units="_" value="4.166" />
<MatthiasCopemanC3 name="Mathias-Copeman C3" units="_" value="0" />
<ChaoSeaderAcentricFactor name="Chao-Seader acentric factor" units="_" value="0.3544" />
<ChaoSeaderLiquidVolume name="Chao-Seader liquid volume" units="m3/kmol" value="0.12721" />
<UnifacVLE name="UNIFAC">
  <group id="1" value="2" />
  <group id="2" value="2" />
  <group id="120" value="1" />
  </UnifacVLE>
<Asog name="ASOG">
  <group id="1" value="2" />
  <group id="2" value="1" />
  <group id="21" value="1" />
  <group id="22" value="1" />
  </Asog>
<Umr name="UMR">
  <group id="1" value="2" />
  <group id="2" value="2" />
  <group id="120" value="1" />
  </Umr>
<ModifiedUnifac name="Modified UNIFAC">
  <group id="1" value="2" />
  <group id="113" value="1" />
  </ModifiedUnifac>
<CAS name="CAS number" value="105-58-8" />
<Smiles name="SMILES" value="CCOC(=O)OCC" />
</compound>

