<compound>
<LibraryIndex name="Index" value="1069" />
<CompoundID name="Name" value="diisopropyl ketone" />
<StructureFormula name="Structure" value="(CH3)2CHCOCH(CH3)2" />
<Family name="Family" value="26" />
<CriticalTemperature name="Critical temperature" units="K" value="582" />
<CriticalPressure name="Critical pressure" units="Pa" value="3380000" />
<CriticalVolume name="Critical volume" units="m3/kmol" value="0.416" />
<CriticalCompressibility name="Critical compressibility factor" units="_" value="0.262" />
<NormalBoilingPointTemperature name="Normal boiling point" units="K" value="397.5" />
<NormalMeltingPointTemperature name="Melting point" units="K" value="204" />
<TriplePointTemperature name="Triple point temperature" units="K" value="204.81" />
<TriplePointPressure name="Triple point pressure" units="Pa" value="0.820585" />
<MolecularWeight name="Molecular weight" units="kg/kmol" value="114.1855" />
<LiquidVolumeAtNormalBoilingPoint name="Liquid molar volume at normal boiling point" units="m3/kmol" value="0.142561" />
<AcentricityFactor name="Acentric factor" units="_" value="0.404427" />
<RadiusOfGyration name="Radius of gyration" units="m" value="3.904E-10" />
<SolubilityParameter name="Solubility parameter" units="J0.5/m1.5" value="16330" />
<DipoleMoment name="Dipole moment" units="Coulomb.m" value="9.11E-30" />
<VanDerWaalsVolume name="Van der Waals volume" units="m3/kmol" value="0.07994" />
<VanDerWaalsArea name="Van der Waals area" units="m2/kmol" value="1.122E+09" />
<HeatOfFormation name="IG heat of formation" units="J/kmol" value="-3.16E+08" />
<GibbsEnergyOfFormation name="IG Gibbs energy of formation" units="J/kmol" value="-1.237E+08" />
<AbsEntropy name="IG absolute entropy" units="J/kmol/K" value="427000" />
<HeatOfFusionAtMeltingPoint name="Heat of fusion at melting point" units="J/kmol" value="1.118E+07" />
<MatthiasCopemanC1 name="Mathias-Copeman C1" units="_" value="1.1748" />
<HeatOfCombustion name="Standard net heat of combustion LHV" units="J/kmol" value="-4.095E+09" />
<SolidDensity name="Solid density" units="kmol/m3">
  <eqno value="2" />
  <A value="9.8299" />
  <B value="-0.0059994" />
  <C value="0" />
  <D value="0" />
  <E value="0" />
  <Tmin units="K" value="81.92" />
  <Tmax units="K" value="204.81" />
  </SolidDensity>
<LiquidDensity name="Liquid density" units="kmol/m3">
  <eqno value="105" />
  <A value="0.013793" />
  <B value="0.039842" />
  <C value="582" />
  <D value="0.095675" />
  <Tmin units="K" value="204.81" />
  <Tmax units="K" value="576" />
  </LiquidDensity>
<VaporPressure name="Vapour pressure" units="Pa">
  <eqno value="101" />
  <A value="107.12" />
  <B value="-8385.7" />
  <C value="-12.681" />
  <D value="0.0000089823" />
  <E value="2" />
  <Tmin units="K" value="204.81" />
  <Tmax units="K" value="580" />
  </VaporPressure>
<HeatOfVaporization name="Heat of vaporization" units="J/kmol">
  <eqno value="106" />
  <A value="8.205456E+07" />
  <B value="3.802881" />
  <C value="-9.83224" />
  <D value="10.38407" />
  <E value="-3.829124" />
  <Tmin units="K" value="204.81" />
  <Tmax units="K" value="576" />
  </HeatOfVaporization>
<SolidHeatCapacityCp name="Solid heat capacity" units="J/kmol/K">
  <eqno value="100" />
  <A value="-4606.3" />
  <B value="1087.6" />
  <C value="3.3297" />
  <D value="-0.060174" />
  <E value="0.00019999" />
  <Tmin units="K" value="20" />
  <Tmax units="K" value="204.81" />
  </SolidHeatCapacityCp>
<LiquidHeatCapacityCp name="Liquid heat capacity" units="J/kmol/K">
  <eqno value="16" />
  <A value="180230" />
  <B value="-51.129" />
  <C value="8.6687" />
  <D value="0.010407" />
  <E value="-0.0000076786" />
  <Tmin units="K" value="204.81" />
  <Tmax units="K" value="410" />
  </LiquidHeatCapacityCp>
<IdealGasHeatCapacityCp name="Ideal gas heat capacity" units="J/kmol/K">
  <eqno value="16" />
  <A value="60064" />
  <B value="-502.12" />
  <C value="13.055" />
  <D value="0.00012498" />
  <E value="-3.7343E-08" />
  <Tmin units="K" value="204.81" />
  <Tmax units="K" value="1500" />
  </IdealGasHeatCapacityCp>
<SecondVirialCoefficient name="Second virial coefficient" units="m3/kmol">
  <eqno value="104" />
  <A value="0.26243" />
  <B value="-290.37" />
  <C value="-61.044" />
  <D value="-22979" />
  <E value="26222" />
  <Tmin units="K" value="288" />
  <Tmax units="K" value="1842" />
  </SecondVirialCoefficient>
<LiquidViscosity name="Liquid viscosity" units="Pa.s">
  <eqno value="101" />
  <A value="-5.6405" />
  <B value="1129.7" />
  <C value="-1.0122" />
  <D value="0.0000027665" />
  <E value="2" />
  <Tmin units="K" value="204.81" />
  <Tmax units="K" value="473" />
  </LiquidViscosity>
<VaporViscosity name="Vapour viscosity" units="Pa.s">
  <eqno value="102" />
  <A value="1.7015E-07" />
  <B value="0.70572" />
  <C value="193.2" />
  <D value="-7481.9" />
  <Tmin units="K" value="204.81" />
  <Tmax units="K" value="1000" />
  </VaporViscosity>
<LiquidThermalConductivity name="Liquid thermal conductivity" units="W/m/K">
  <eqno value="16" />
  <A value="-0.11955" />
  <B value="20.681" />
  <C value="-1.3034" />
  <D value="0.0000051067" />
  <E value="-0.0000013764" />
  <Tmin units="K" value="172.8" />
  <Tmax units="K" value="460" />
  </LiquidThermalConductivity>
<VaporThermalConductivity name="Vapour thermal conductivity" units="W/m/K">
  <eqno value="102" />
  <A value="-9.5076" />
  <B value="-0.0072136" />
  <C value="2380.8" />
  <D value="-7.251E+07" />
  <Tmin units="K" value="204.81" />
  <Tmax units="K" value="1000" />
  </VaporThermalConductivity>
<SurfaceTension name="Surface tension" units="N/m">
  <eqno value="16" />
  <A value="-0.0095536" />
  <B value="69.06" />
  <C value="-3.5576" />
  <D value="0.0014554" />
  <E value="-0.0000061411" />
  <Tmin units="K" value="204.81" />
  <Tmax units="K" value="576" />
  </SurfaceTension>
<RPPHeatCapacityCp name="Ideal gas heat capacity (RPP)" units="J/kmol/K">
  <eqno value="4" />
  <A value="-36824" />
  <B value="754.57" />
  <C value="-0.45548" />
  <D value="0.00010732" />
  <Tmin units="K" value="204.81" />
  <Tmax units="K" value="1500" />
  </RPPHeatCapacityCp>
<AntoineVaporPressure name="Antoine" units="Pa">
  <eqno value="10" />
  <A value="21.12" />
  <B value="3193.7" />
  <C value="-64.256" />
  <Tmin units="K" value="350" />
  <Tmax units="K" value="520" />
  </AntoineVaporPressure>
<LiquidViscosityRPS name="Liquid viscosity (RPS)" units="Pa.s">
  <eqno value="12" />
  <A value="-2.6441" />
  <B value="-0.015251" />
  <Tmin units="K" value="204.81" />
  <Tmax units="K" value="397.55" />
  </LiquidViscosityRPS>
<COSTALDVolume name="COSTLD characteristic volume (V*)" units="m3/kmol" value="0.434469" />
<DiameterLJ name="Lennard Jones diameter" units="m" value="6.949942E-10" />
<EnergyLJ name="Lennard Jones energy" units="K" value="305.9995" />
<RacketParameter name="Rackett parameter" units="_" value="0.280468" />
<FullerVolume name="Fuller et al. diffusion volume" units="_" value="133.85" />
<MatthiasCopemanC2 name="Mathias-Copeman C2" units="_" value="-0.68836" />
<Parachor name="Parachor" units="kg0.25.m3/s0.5/kmol" value="0.0550018" />
<SpecificGravity name="Specific gravity" units="_" value="0.724326" />
<Charge name="Charge" units="_" value="0" />
<CostaldAcentricFactor name="SRK acentric factor" units="_" value="0.404427" />
<WilsonVolume name="Wilson volume" units="m3/kmol" value="0.142561" />
<UniquacR name="UNIQUAC r" units="_" value="5.0493" />
<UniquacQ name="UNIQUAC q" units="_" value="4.568" />
<MatthiasCopemanC3 name="Mathias-Copeman C3" units="_" value="0.95543" />
<ChaoSeaderAcentricFactor name="Chao-Seader acentric factor" units="_" value="0.404427" />
<ChaoSeaderSolubilityParameter name="Chao-Seader solubility parameter" units="J0.5/m1.5" value="16330" />
<ChaoSeaderLiquidVolume name="Chao-Seader liquid volume" units="m3/kmol" value="0.142561" />
<Asog name="ASOG">
  <group id="1" value="4" />
  <group id="3" value="2" />
  <group id="18" value="1" />
  </Asog>
<CAS name="CAS number" value="565-80-0" />
<Smiles name="SMILES" value="CC(C)C(=O)C(C)C" />
</compound>

