<compound>
<LibraryIndex name="Index" value="1743" />
<CompoundID name="Name" value="diisopropylamine" />
<StructureFormula name="Structure" value="((CH3)2CH)2NH" />
<Family name="Family" value="35" />
<CriticalTemperature name="Critical temperature" units="K" value="522.15" />
<CriticalPressure name="Critical pressure" units="Pa" value="3200000" />
<CriticalVolume name="Critical volume" units="m3/kmol" value="0.031" />
<CriticalCompressibility name="Critical compressibility factor" units="_" value="0.308" />
<NormalBoilingPointTemperature name="Normal boiling point" units="K" value="357.05" />
<NormalMeltingPointTemperature name="Melting point" units="K" value="176.85" />
<TriplePointTemperature name="Triple point temperature" units="K" value="176.85" />
<TriplePointPressure name="Triple point pressure" units="Pa" value="0.00447237" />
<MolecularWeight name="Molecular weight" units="kg/kmol" value="101.19" />
<LiquidVolumeAtNormalBoilingPoint name="Liquid molar volume at normal boiling point" units="m3/kmol" value="0.141919" />
<AcentricityFactor name="Acentric factor" units="_" value="0.388315" />
<RadiusOfGyration name="Radius of gyration" units="m" value="3.806E-10" />
<SolubilityParameter name="Solubility parameter" units="J0.5/m1.5" value="15060" />
<VanDerWaalsVolume name="Van der Waals volume" units="m3/kmol" value="0.07632" />
<VanDerWaalsArea name="Van der Waals area" units="m2/kmol" value="1.061E+09" />
<HeatOfFormation name="IG heat of formation" units="J/kmol" value="-1.5E+08" />
<GibbsEnergyOfFormation name="IG Gibbs energy of formation" units="J/kmol" value="6.42E+07" />
<AbsEntropy name="IG absolute entropy" units="J/kmol/K" value="412000" />
<HeatOfFusionAtMeltingPoint name="Heat of fusion at melting point" units="J/kmol" value="6530000" />
<MatthiasCopemanC1 name="Mathias-Copeman C1" units="_" value="0.98503" />
<HeatOfCombustion name="Standard net heat of combustion LHV" units="J/kmol" value="-3.99E+09" />
<SolidDensity name="Solid density" units="kmol/m3">
  <eqno value="2" />
  <A value="10.219" />
  <B value="-0.0064246" />
  <C value="0" />
  <D value="0" />
  <E value="0" />
  <Tmin units="K" value="70.74" />
  <Tmax units="K" value="176.85" />
  </SolidDensity>
<LiquidDensity name="Liquid density" units="kmol/m3">
  <eqno value="105" />
  <A value="0.72754" />
  <B value="0.27918" />
  <C value="522.15" />
  <D value="0.29458" />
  <Tmin units="K" value="176.85" />
  <Tmax units="K" value="504.88" />
  </LiquidDensity>
<VaporPressure name="Vapour pressure" units="Pa">
  <eqno value="101" />
  <A value="237.36" />
  <B value="-12403" />
  <C value="-33.276" />
  <D value="0.000035165" />
  <E value="2" />
  <Tmin units="K" value="176.85" />
  <Tmax units="K" value="523.1" />
  </VaporPressure>
<HeatOfVaporization name="Heat of vaporization" units="J/kmol">
  <eqno value="106" />
  <A value="8.537039E+07" />
  <B value="-2.459337" />
  <C value="14.73933" />
  <D value="-19.70849" />
  <E value="7.844199" />
  <Tmin units="K" value="176.85" />
  <Tmax units="K" value="504.88" />
  </HeatOfVaporization>
<SolidHeatCapacityCp name="Solid heat capacity" units="J/kmol/K">
  <eqno value="1" />
  <A value="197480" />
  <Tmin units="K" value="0" />
  <Tmax units="K" value="522.15" />
  </SolidHeatCapacityCp>
<LiquidHeatCapacityCp name="Liquid heat capacity" units="J/kmol/K">
  <eqno value="16" />
  <A value="150380" />
  <B value="276.56" />
  <C value="5.7411" />
  <D value="0.021881" />
  <E value="-0.000021998" />
  <Tmin units="K" value="275" />
  <Tmax units="K" value="357.05" />
  </LiquidHeatCapacityCp>
<IdealGasHeatCapacityCp name="Ideal gas heat capacity" units="J/kmol/K">
  <eqno value="16" />
  <A value="61641" />
  <B value="-432.93" />
  <C value="12.839" />
  <D value="0.00037342" />
  <E value="-1.4329E-07" />
  <Tmin units="K" value="273" />
  <Tmax units="K" value="1500" />
  </IdealGasHeatCapacityCp>
<SecondVirialCoefficient name="Second virial coefficient" units="m3/kmol">
  <eqno value="104" />
  <A value="0.23056" />
  <B value="-237.06" />
  <C value="-36.183" />
  <D value="970.06" />
  <E value="-9593.3" />
  <Tmin units="K" value="261.55" />
  <Tmax units="K" value="2000" />
  </SecondVirialCoefficient>
<LiquidViscosity name="Liquid viscosity" units="Pa.s">
  <eqno value="101" />
  <A value="-7.0105" />
  <B value="766.59" />
  <C value="-0.57101" />
  <D value="-0.0000016173" />
  <E value="2" />
  <Tmin units="K" value="250" />
  <Tmax units="K" value="422" />
  </LiquidViscosity>
<VaporViscosity name="Vapour viscosity" units="Pa.s">
  <eqno value="102" />
  <A value="5.4462E-07" />
  <B value="0.56686" />
  <C value="334.62" />
  <D value="-4787.5" />
  <Tmin units="K" value="357.05" />
  <Tmax units="K" value="1000" />
  </VaporViscosity>
<LiquidThermalConductivity name="Liquid thermal conductivity" units="W/m/K">
  <eqno value="16" />
  <A value="0.046488" />
  <B value="-113.84" />
  <C value="-0.63846" />
  <D value="-0.0065631" />
  <E value="0.0000029442" />
  <Tmin units="K" value="176.85" />
  <Tmax units="K" value="357.05" />
  </LiquidThermalConductivity>
<VaporThermalConductivity name="Vapour thermal conductivity" units="W/m/K">
  <eqno value="102" />
  <A value="0.00048482" />
  <B value="0.81453" />
  <C value="349.64" />
  <D value="151910" />
  <Tmin units="K" value="176.85" />
  <Tmax units="K" value="1000" />
  </VaporThermalConductivity>
<SurfaceTension name="Surface tension" units="N/m">
  <eqno value="16" />
  <A value="-0.007975" />
  <B value="58.206" />
  <C value="-3.5469" />
  <D value="0.0016772" />
  <E value="-0.0000085096" />
  <Tmin units="K" value="176.85" />
  <Tmax units="K" value="504.88" />
  </SurfaceTension>
<RPPHeatCapacityCp name="Ideal gas heat capacity (RPP)" units="J/kmol/K">
  <eqno value="4" />
  <A value="-15354" />
  <B value="697.81" />
  <C value="-0.39592" />
  <D value="0.000082987" />
  <Tmin units="K" value="273" />
  <Tmax units="K" value="1500" />
  </RPPHeatCapacityCp>
<AntoineVaporPressure name="Antoine" units="Pa">
  <eqno value="10" />
  <A value="20.374" />
  <B value="2622.7" />
  <C value="-60.838" />
  <Tmin units="K" value="313.77" />
  <Tmax units="K" value="468.43" />
  </AntoineVaporPressure>
<LiquidViscosityRPS name="Liquid viscosity (RPS)" units="Pa.s">
  <eqno value="12" />
  <A value="-4.4791" />
  <B value="-0.011177" />
  <Tmin units="K" value="250" />
  <Tmax units="K" value="357.05" />
  </LiquidViscosityRPS>
<COSTALDVolume name="COSTLD characteristic volume (V*)" units="m3/kmol" value="0.41328" />
<DiameterLJ name="Lennard Jones diameter" units="m" value="2.408637E-10" />
<EnergyLJ name="Lennard Jones energy" units="K" value="491.4633" />
<RacketParameter name="Rackett parameter" units="_" value="0.282376" />
<FullerVolume name="Fuller et al. diffusion volume" units="_" value="134.59" />
<MatthiasCopemanC2 name="Mathias-Copeman C2" units="_" value="0" />
<Parachor name="Parachor" units="kg0.25.m3/s0.5/kmol" value="0.0523754" />
<SpecificGravity name="Specific gravity" units="_" value="0.722239" />
<Charge name="Charge" units="_" value="0" />
<CostaldAcentricFactor name="SRK acentric factor" units="_" value="0.388315" />
<WilsonVolume name="Wilson volume" units="m3/kmol" value="0.1" />
<UniquacR name="UNIQUAC r" units="_" value="5.0308" />
<UniquacQ name="UNIQUAC q" units="_" value="4.244" />
<MatthiasCopemanC3 name="Mathias-Copeman C3" units="_" value="0" />
<UnifacVLE name="UNIFAC">
  <group id="1" value="4" />
  <group id="3" value="1" />
  <group id="34" value="1" />
  </UnifacVLE>
<Asog name="ASOG">
  <group id="1" value="4" />
  <group id="3" value="2" />
  <group id="30" value="1" />
  </Asog>
<Umr name="UMR">
  <group id="1" value="4" />
  <group id="3" value="1" />
  <group id="34" value="1" />
  </Umr>
<ModifiedUnifac name="Modified UNIFAC">
  <group id="1" value="4" />
  <group id="3" value="1" />
  <group id="33" value="1" />
  </ModifiedUnifac>
<CAS name="CAS number" value="108-18-9" />
<Smiles name="SMILES" value="CC(C)NC(C)C" />
</compound>

