<compound>
<LibraryIndex name="Index" value="404" />
<CompoundID name="Name" value="dimethylacetylene" />
<StructureFormula name="Structure" value="CH3CCCH3" />
<Family name="Family" value="15" />
<CriticalTemperature name="Critical temperature" units="K" value="473.2" />
<CriticalPressure name="Critical pressure" units="Pa" value="4870000" />
<CriticalVolume name="Critical volume" units="m3/kmol" value="0.221" />
<CriticalCompressibility name="Critical compressibility factor" units="_" value="0.274" />
<NormalBoilingPointTemperature name="Normal boiling point" units="K" value="300.13" />
<NormalMeltingPointTemperature name="Melting point" units="K" value="240.91" />
<TriplePointTemperature name="Triple point temperature" units="K" value="240.91" />
<TriplePointPressure name="Triple point pressure" units="Pa" value="6121.21" />
<MolecularWeight name="Molecular weight" units="kg/kmol" value="54.09044" />
<LiquidVolumeAtNormalBoilingPoint name="Liquid molar volume at normal boiling point" units="m3/kmol" value="0.0788997" />
<AcentricityFactor name="Acentric factor" units="_" value="0.238542" />
<RadiusOfGyration name="Radius of gyration" units="m" value="2.519E-10" />
<SolubilityParameter name="Solubility parameter" units="J0.5/m1.5" value="17480" />
<DipoleMoment name="Dipole moment" units="Coulomb.m" value="1.32E-29" />
<VanDerWaalsVolume name="Van der Waals volume" units="m3/kmol" value="0.04344" />
<VanDerWaalsArea name="Van der Waals area" units="m2/kmol" value="6.2E+08" />
<HeatOfFormation name="IG heat of formation" units="J/kmol" value="1.457E+08" />
<GibbsEnergyOfFormation name="IG Gibbs energy of formation" units="J/kmol" value="1.849E+08" />
<AbsEntropy name="IG absolute entropy" units="J/kmol/K" value="283300" />
<HeatOfFusionAtMeltingPoint name="Heat of fusion at melting point" units="J/kmol" value="9234000" />
<MatthiasCopemanC1 name="Mathias-Copeman C1" units="_" value="0.843411" />
<HeatOfCombustion name="Standard net heat of combustion LHV" units="J/kmol" value="-2.4189E+09" />
<SolidDensity name="Solid density" units="kmol/m3">
  <eqno value="2" />
  <A value="20.891" />
  <B value="1.4333E-16" />
  <Tmin units="K" value="0" />
  <Tmax units="K" value="9.5" />
  </SolidDensity>
<LiquidDensity name="Liquid density" units="kmol/m3">
  <eqno value="105" />
  <A value="1.1717" />
  <B value="0.25895" />
  <C value="473.2" />
  <D value="0.27289" />
  <Tmin units="K" value="240.91" />
  <Tmax units="K" value="460.97" />
  </LiquidDensity>
<VaporPressure name="Vapour pressure" units="Pa">
  <eqno value="101" />
  <A value="66.56107" />
  <B value="-4998.053" />
  <C value="-6.834282" />
  <D value="6.682052E-06" />
  <E value="2" />
  <Tmin units="K" value="235.35" />
  <Tmax units="K" value="473.2" />
  </VaporPressure>
<HeatOfVaporization name="Heat of vaporization" units="J/kmol">
  <eqno value="106" />
  <A value="4761730" />
  <B value="-11.5565" />
  <C value="30.6629" />
  <D value="-31.89366" />
  <E value="12.67797" />
  <Tmin units="K" value="240.91" />
  <Tmax units="K" value="483.15" />
  </HeatOfVaporization>
<SolidHeatCapacityCp name="Solid heat capacity" units="J/kmol/K">
  <eqno value="100" />
  <A value="-22058" />
  <B value="1434.2" />
  <C value="-6.035" />
  <D value="-0.0026008" />
  <E value="0.00007651" />
  <Tmin units="K" value="30" />
  <Tmax units="K" value="140" />
  </SolidHeatCapacityCp>
<LiquidHeatCapacityCp name="Liquid heat capacity" units="J/kmol/K">
  <eqno value="16" />
  <A value="116500" />
  <B value="35.116" />
  <C value="5.8634" />
  <D value="0.0049877" />
  <E value="0.000013087" />
  <Tmin units="K" value="240.91" />
  <Tmax units="K" value="416.29" />
  </LiquidHeatCapacityCp>
<IdealGasHeatCapacityCp name="Ideal gas heat capacity" units="J/kmol/K">
  <eqno value="16" />
  <A value="62226" />
  <B value="-826.04" />
  <C value="12.513" />
  <D value="-0.0002013" />
  <E value="4.9424E-08" />
  <Tmin units="K" value="200" />
  <Tmax units="K" value="1500" />
  </IdealGasHeatCapacityCp>
<SecondVirialCoefficient name="Second virial coefficient" units="m3/kmol">
  <eqno value="104" />
  <A value="0.1305" />
  <B value="-139.22" />
  <C value="-10.692" />
  <D value="-76.88" />
  <E value="-253.62" />
  <Tmin units="K" value="244" />
  <Tmax units="K" value="1500" />
  </SecondVirialCoefficient>
<LiquidViscosity name="Liquid viscosity" units="Pa.s">
  <eqno value="101" />
  <A value="-0.045622" />
  <B value="305.04" />
  <C value="-1.6582" />
  <D value="-4.749E-08" />
  <E value="2" />
  <Tmin units="K" value="240.91" />
  <Tmax units="K" value="400" />
  </LiquidViscosity>
<VaporViscosity name="Vapour viscosity" units="Pa.s">
  <eqno value="102" />
  <A value="0.0000021802" />
  <B value="0.39407" />
  <C value="508.41" />
  <D value="3758" />
  <Tmin units="K" value="173.15" />
  <Tmax units="K" value="1000" />
  </VaporViscosity>
<LiquidThermalConductivity name="Liquid thermal conductivity" units="W/m/K">
  <eqno value="16" />
  <A value="0.0074431" />
  <B value="-154.13" />
  <C value="-0.25098" />
  <D value="-0.0046292" />
  <E value="-7.3662E-08" />
  <Tmin units="K" value="240.91" />
  <Tmax units="K" value="428.44" />
  </LiquidThermalConductivity>
<VaporThermalConductivity name="Vapour thermal conductivity" units="W/m/K">
  <eqno value="102" />
  <A value="0.00021497" />
  <B value="0.91998" />
  <C value="214.54" />
  <D value="130500" />
  <Tmin units="K" value="240.91" />
  <Tmax units="K" value="1000" />
  </VaporThermalConductivity>
<SurfaceTension name="Surface tension" units="N/m">
  <eqno value="16" />
  <A value="-0.0028208" />
  <B value="1162.8" />
  <C value="-14.995" />
  <D value="0.042251" />
  <E value="-0.000058944" />
  <Tmin units="K" value="240.91" />
  <Tmax units="K" value="488.68" />
  </SurfaceTension>
<RPPHeatCapacityCp name="Ideal gas heat capacity (RPP)" units="J/kmol/K">
  <eqno value="4" />
  <A value="24704" />
  <B value="201.33" />
  <C value="-0.063295" />
  <D value="0.0000018433" />
  <Tmin units="K" value="200" />
  <Tmax units="K" value="1500" />
  </RPPHeatCapacityCp>
<AntoineVaporPressure name="Antoine" units="Pa">
  <eqno value="10" />
  <A value="21.304" />
  <B value="2609.4" />
  <C value="-33.287" />
  <Tmin units="K" value="286.57" />
  <Tmax units="K" value="424.3" />
  </AntoineVaporPressure>
<LiquidViscosityRPS name="Liquid viscosity (RPS)" units="Pa.s">
  <eqno value="13" />
  <A value="-3.9474" />
  <B value="-0.021183" />
  <C value="0.000020132" />
  <Tmin units="K" value="240.91" />
  <Tmax units="K" value="371" />
  </LiquidViscosityRPS>
<COSTALDVolume name="COSTLD characteristic volume (V*)" units="m3/kmol" value="0.230469" />
<DiameterLJ name="Lennard Jones diameter" units="m" value="5.334271E-10" />
<EnergyLJ name="Lennard Jones energy" units="K" value="292.3209" />
<FullerVolume name="Fuller et al. diffusion volume" units="_" value="77.46" />
<MatthiasCopemanC2 name="Mathias-Copeman C2" units="_" value="0" />
<Parachor name="Parachor" units="kg0.25.m3/s0.5/kmol" value="0.0302" />
<SpecificGravity name="Specific gravity" units="_" value="0.695843" />
<Charge name="Charge" units="_" value="0" />
<CostaldAcentricFactor name="SRK acentric factor" units="_" value="0.238542" />
<WilsonVolume name="Wilson volume" units="m3/kmol" value="0.0789036" />
<UniquacR name="UNIQUAC r" units="_" value="2.8635" />
<UniquacQ name="UNIQUAC q" units="_" value="2.48" />
<ApiSrkS2 name="API-SRK s2" units="_" value="-0.109294" />
<MatthiasCopemanC3 name="Mathias-Copeman C3" units="_" value="0" />
<ChaoSeaderAcentricFactor name="Chao-Seader acentric factor" units="_" value="0.1301" />
<ChaoSeaderSolubilityParameter name="Chao-Seader solubility parameter" units="J0.5/m1.5" value="17463.7" />
<ChaoSeaderLiquidVolume name="Chao-Seader liquid volume" units="m3/kmol" value="0.0789036" />
<UnifacVLE name="UNIFAC">
  <group id="1" value="2" />
  <group id="67" value="1" />
  </UnifacVLE>
<Asog name="ASOG">
  <group id="1" value="2" />
  <group id="54" value="1" />
  </Asog>
<Umr name="UMR">
  <group id="1" value="2" />
  <group id="67" value="1" />
  </Umr>
<ModifiedUnifac name="Modified UNIFAC">
  <group id="1" value="2" />
  <group id="66" value="1" />
  </ModifiedUnifac>
<CAS name="CAS number" value="503-17-3" />
<Smiles name="SMILES" value="CC#CC" />
</compound>

