<compound>
<LibraryIndex name="Index" value="1381" />
<CompoundID name="Name" value="dimethyl terephthalate" />
<StructureFormula name="Structure" value="C6H4(COOCH3)2" />
<Family name="Family" value="60" />
<CriticalTemperature name="Critical temperature" units="K" value="772" />
<CriticalPressure name="Critical pressure" units="Pa" value="2780000" />
<CriticalVolume name="Critical volume" units="m3/kmol" value="0.529" />
<CriticalCompressibility name="Critical compressibility factor" units="_" value="0.229" />
<NormalBoilingPointTemperature name="Normal boiling point" units="K" value="555.15" />
<NormalMeltingPointTemperature name="Melting point" units="K" value="413.8" />
<TriplePointTemperature name="Triple point temperature" units="K" value="413.8" />
<TriplePointPressure name="Triple point pressure" units="Pa" value="1257.73" />
<MolecularWeight name="Molecular weight" units="kg/kmol" value="194.184" />
<LiquidVolumeAtNormalBoilingPoint name="Liquid molar volume at normal boiling point" units="m3/kmol" value="0.180564" />
<AcentricityFactor name="Acentric factor" units="_" value="0.637086" />
<RadiusOfGyration name="Radius of gyration" units="m" value="5.394E-10" />
<SolubilityParameter name="Solubility parameter" units="J0.5/m1.5" value="17710" />
<DipoleMoment name="Dipole moment" units="Coulomb.m" value="7.3E-30" />
<VanDerWaalsVolume name="Van der Waals volume" units="m3/kmol" value="0.10106" />
<VanDerWaalsArea name="Van der Waals area" units="m2/kmol" value="1.324E+09" />
<HeatOfFormation name="IG heat of formation" units="J/kmol" value="-6.37E+08" />
<GibbsEnergyOfFormation name="IG Gibbs energy of formation" units="J/kmol" value="-4.74E+08" />
<AbsEntropy name="IG absolute entropy" units="J/kmol/K" value="550000" />
<HeatOfFusionAtMeltingPoint name="Heat of fusion at melting point" units="J/kmol" value="3.09E+07" />
<MatthiasCopemanC1 name="Mathias-Copeman C1" units="_" value="1.43085" />
<HeatOfCombustion name="Standard net heat of combustion LHV" units="J/kmol" value="-4.4115E+09" />
<SolidDensity name="Solid density" units="kmol/m3">
  <eqno value="2" />
  <A value="7.4567" />
  <B value="-1.8182E-16" />
  <C value="0" />
  <D value="0" />
  <E value="0" />
  <Tmin units="K" value="0" />
  <Tmax units="K" value="9.5" />
  </SolidDensity>
<LiquidDensity name="Liquid density" units="kmol/m3">
  <eqno value="105" />
  <A value="0.50864" />
  <B value="0.26895" />
  <C value="772" />
  <D value="0.26133" />
  <Tmin units="K" value="413.8" />
  <Tmax units="K" value="753.15" />
  </LiquidDensity>
<VaporPressure name="Vapour pressure" units="Pa">
  <eqno value="101" />
  <A value="87.35202" />
  <B value="-11061.82" />
  <C value="-8.88269" />
  <D value="1.566691E-07" />
  <E value="2" />
  <Tmin units="K" value="413.8" />
  <Tmax units="K" value="772" />
  </VaporPressure>
<HeatOfVaporization name="Heat of vaporization" units="J/kmol">
  <eqno value="106" />
  <A value="4.927268E+07" />
  <B value="-0.826644" />
  <C value="0.840569" />
  <D value="0.547723" />
  <E value="-0.373819" />
  <Tmin units="K" value="413.8" />
  <Tmax units="K" value="753.15" />
  </HeatOfVaporization>
<SolidHeatCapacityCp name="Solid heat capacity" units="J/kmol/K">
  <eqno value="100" />
  <A value="-784670" />
  <B value="8890.9" />
  <C value="-28.57" />
  <D value="0.040933" />
  <E value="-0.000019452" />
  <Tmin units="K" value="317.35" />
  <Tmax units="K" value="403.68" />
  </SolidHeatCapacityCp>
<LiquidHeatCapacityCp name="Liquid heat capacity" units="J/kmol/K">
  <eqno value="16" />
  <A value="306140" />
  <B value="1151.8" />
  <C value="1.8179" />
  <D value="0.019226" />
  <E value="-0.0000087371" />
  <Tmin units="K" value="423.15" />
  <Tmax units="K" value="466.35" />
  </LiquidHeatCapacityCp>
<IdealGasHeatCapacityCp name="Ideal gas heat capacity" units="J/kmol/K">
  <eqno value="16" />
  <A value="95546" />
  <B value="-944.26" />
  <C value="15.059" />
  <D value="-0.0027373" />
  <E value="0.0000012901" />
  <Tmin units="K" value="273" />
  <Tmax units="K" value="1000.15" />
  </IdealGasHeatCapacityCp>
<SecondVirialCoefficient name="Second virial coefficient" units="m3/kmol">
  <eqno value="104" />
  <A value="0.40094" />
  <B value="-498.08" />
  <C value="-263.19" />
  <D value="-218660" />
  <E value="171700" />
  <Tmin units="K" value="386" />
  <Tmax units="K" value="1774" />
  </SecondVirialCoefficient>
<LiquidViscosity name="Liquid viscosity" units="Pa.s">
  <eqno value="101" />
  <A value="-9.6027" />
  <B value="1845.8" />
  <C value="-0.28991" />
  <D value="2.7867E-07" />
  <E value="2" />
  <Tmin units="K" value="413.8" />
  <Tmax units="K" value="561.15" />
  </LiquidViscosity>
<VaporViscosity name="Vapour viscosity" units="Pa.s">
  <eqno value="102" />
  <A value="1.5497E-10" />
  <B value="1.62" />
  <C value="-527.6" />
  <D value="101960" />
  <Tmin units="K" value="413.8" />
  <Tmax units="K" value="1550" />
  </VaporViscosity>
<LiquidThermalConductivity name="Liquid thermal conductivity" units="W/m/K">
  <eqno value="16" />
  <A value="-0.015206" />
  <B value="-275.63" />
  <C value="0.058569" />
  <D value="-0.0035078" />
  <E value="7.3745E-07" />
  <Tmin units="K" value="413.8" />
  <Tmax units="K" value="561.15" />
  </LiquidThermalConductivity>
<VaporThermalConductivity name="Vapour thermal conductivity" units="W/m/K">
  <eqno value="102" />
  <A value="-21938" />
  <B value="0.32202" />
  <C value="-4.3275E+09" />
  <D value="-1.5265E+11" />
  <Tmin units="K" value="274" />
  <Tmax units="K" value="1000" />
  </VaporThermalConductivity>
<SurfaceTension name="Surface tension" units="N/m">
  <eqno value="16" />
  <A value="-0.058913" />
  <B value="-26.714" />
  <C value="-1.9282" />
  <D value="-0.0011887" />
  <E value="8.1672E-08" />
  <Tmin units="K" value="413.8" />
  <Tmax units="K" value="753.15" />
  </SurfaceTension>
<RPPHeatCapacityCp name="Ideal gas heat capacity (RPP)" units="J/kmol/K">
  <eqno value="4" />
  <A value="-135990" />
  <B value="1367.3" />
  <C value="-1.3275" />
  <D value="0.00050832" />
  <Tmin units="K" value="273" />
  <Tmax units="K" value="1000.15" />
  </RPPHeatCapacityCp>
<AntoineVaporPressure name="Antoine" units="Pa">
  <eqno value="10" />
  <A value="23.619" />
  <B value="6772" />
  <C value="-1.4218" />
  <Tmin units="K" value="470.36" />
  <Tmax units="K" value="677.74" />
  </AntoineVaporPressure>
<LiquidViscosityRPS name="Liquid viscosity (RPS)" units="Pa.s">
  <eqno value="12" />
  <A value="-3.4624" />
  <B value="-0.008305" />
  <Tmin units="K" value="413.8" />
  <Tmax units="K" value="561.15" />
  </LiquidViscosityRPS>
<COSTALDVolume name="COSTLD characteristic volume (V*)" units="m3/kmol" value="0.563654" />
<DiameterLJ name="Lennard Jones diameter" units="m" value="8.849681E-10" />
<EnergyLJ name="Lennard Jones energy" units="K" value="249.999" />
<RacketParameter name="Rackett parameter" units="_" value="0.24506" />
<FullerVolume name="Fuller et al. diffusion volume" units="_" value="169.94" />
<MatthiasCopemanC2 name="Mathias-Copeman C2" units="_" value="0" />
<Parachor name="Parachor" units="kg0.25.m3/s0.5/kmol" value="0.06683" />
<SpecificGravity name="Specific gravity" units="_" value="1.174947" />
<Charge name="Charge" units="_" value="0" />
<CostaldAcentricFactor name="SRK acentric factor" units="_" value="0.637086" />
<WilsonVolume name="Wilson volume" units="m3/kmol" value="0.180564" />
<UniquacR name="UNIQUAC r" units="_" value="6.6618" />
<UniquacQ name="UNIQUAC q" units="_" value="5.296" />
<MatthiasCopemanC3 name="Mathias-Copeman C3" units="_" value="0" />
<ChaoSeaderAcentricFactor name="Chao-Seader acentric factor" units="_" value="0.637086" />
<ChaoSeaderSolubilityParameter name="Chao-Seader solubility parameter" units="J0.5/m1.5" value="17710" />
<ChaoSeaderLiquidVolume name="Chao-Seader liquid volume" units="m3/kmol" value="0.180564" />
<UnifacVLE name="UNIFAC">
  <group id="1" value="2" />
  <group id="10" value="4" />
  <group id="11" value="2" />
  <group id="77" value="2" />
  </UnifacVLE>
<Asog name="ASOG">
  <group id="1" value="2" />
  <group id="10" value="4" />
  <group id="11" value="2" />
  <group id="22" value="2" />
  </Asog>
<Umr name="UMR">
  <group id="1" value="2" />
  <group id="10" value="4" />
  <group id="11" value="2" />
  <group id="77" value="2" />
  </Umr>
<ModifiedUnifac name="Modified UNIFAC">
  <group id="1" value="2" />
  <group id="9" value="4" />
  <group id="10" value="2" />
  <group id="77" value="2" />
  </ModifiedUnifac>
<CAS name="CAS number" value="120-61-6" />
<Smiles name="SMILES" value="c1c(C(=O)OC)ccc(C(=O)OC)c1" />
</compound>

