<compound>
<LibraryIndex name="Index" value="3819" />
<CompoundID name="Name" value="diphenyl disulfide" />
<StructureFormula name="Structure" value="(C6H5)SS(C6H5)" />
<Family name="Family" value="42" />
<CriticalTemperature name="Critical temperature" units="K" value="829.8" />
<CriticalPressure name="Critical pressure" units="Pa" value="3569000" />
<CriticalVolume name="Critical volume" units="m3/kmol" value="0.584" />
<CriticalCompressibility name="Critical compressibility factor" units="_" value="0.302" />
<NormalBoilingPointTemperature name="Normal boiling point" units="K" value="583.15" />
<NormalMeltingPointTemperature name="Melting point" units="K" value="333.5" />
<TriplePointTemperature name="Triple point temperature" units="K" value="333.5" />
<TriplePointPressure name="Triple point pressure" units="Pa" value="0.49" />
<MolecularWeight name="Molecular weight" units="kg/kmol" value="218.3378" />
<LiquidVolumeAtNormalBoilingPoint name="Liquid molar volume at normal boiling point" units="m3/kmol" value="0.2076" />
<AcentricityFactor name="Acentric factor" units="_" value="0.569717" />
<RadiusOfGyration name="Radius of gyration" units="m" value="5.685E-10" />
<SolubilityParameter name="Solubility parameter" units="J0.5/m1.5" value="20480" />
<DipoleMoment name="Dipole moment" units="Coulomb.m" value="5.97E-30" />
<VanDerWaalsVolume name="Van der Waals volume" units="m3/kmol" value="0.1193" />
<VanDerWaalsArea name="Van der Waals area" units="m2/kmol" value="1.447E+09" />
<HeatOfFormation name="IG heat of formation" units="J/kmol" value="2.628E+08" />
<GibbsEnergyOfFormation name="IG Gibbs energy of formation" units="J/kmol" value="3.518E+08" />
<AbsEntropy name="IG absolute entropy" units="J/kmol/K" value="489300" />
<HeatOfFusionAtMeltingPoint name="Heat of fusion at melting point" units="J/kmol" value="1.93E+07" />
<HeatOfCombustion name="Standard net heat of combustion LHV" units="J/kmol" value="-6.676E+09" />
<SolidDensity name="Solid density" units="kmol/m3">
  <eqno value="2" />
  <A value="6.3025" />
  <B value="-0.00053803" />
  <C value="0" />
  <D value="0" />
  <E value="0" />
  <Tmin units="K" value="290" />
  <Tmax units="K" value="333.5" />
  </SolidDensity>
<LiquidDensity name="Liquid density" units="kmol/m3">
  <eqno value="105" />
  <A value="0.5173" />
  <B value="0.302" />
  <C value="829.8" />
  <D value="0.28571" />
  <Tmin units="K" value="333.5" />
  <Tmax units="K" value="829.8" />
  </LiquidDensity>
<VaporPressure name="Vapour pressure" units="Pa">
  <eqno value="101" />
  <A value="927.5541" />
  <B value="-59320.23" />
  <C value="-131.1073" />
  <D value="0.000060625" />
  <E value="2" />
  <Tmin units="K" value="333.5" />
  <Tmax units="K" value="829.8" />
  </VaporPressure>
<HeatOfVaporization name="Heat of vaporization" units="J/kmol">
  <eqno value="106" />
  <A value="1.1805E+08" />
  <B value="0.46278" />
  <C value="0.25764" />
  <D value="-0.22402" />
  <E value="-0.0012437" />
  <Tmin units="K" value="333.5" />
  <Tmax units="K" value="829.8" />
  </HeatOfVaporization>
<SolidHeatCapacityCp name="Solid heat capacity" units="J/kmol/K">
  <eqno value="100" />
  <A value="13316" />
  <B value="948.21" />
  <C value="-1.198" />
  <D value="0.0037219" />
  <E value="-0.0000045845" />
  <Tmin units="K" value="50" />
  <Tmax units="K" value="333.5" />
  </SolidHeatCapacityCp>
<LiquidHeatCapacityCp name="Liquid heat capacity" units="J/kmol/K">
  <eqno value="100" />
  <A value="267470" />
  <B value="28.884" />
  <C value="0.54728" />
  <D value="0" />
  <E value="0" />
  <Tmin units="K" value="333.5" />
  <Tmax units="K" value="583.15" />
  </LiquidHeatCapacityCp>
<IdealGasHeatCapacityCp name="Ideal gas heat capacity" units="J/kmol/K">
  <eqno value="16" />
  <A value="50433" />
  <B value="-472.23" />
  <C value="13.469" />
  <D value="-0.00011605" />
  <E value="2.3877E-08" />
  <Tmin units="K" value="273" />
  <Tmax units="K" value="1500" />
  </IdealGasHeatCapacityCp>
<SecondVirialCoefficient name="Second virial coefficient" units="m3/kmol">
  <eqno value="104" />
  <A value="0.32906" />
  <B value="-464.91" />
  <C value="-256.61" />
  <D value="-253250" />
  <E value="94392" />
  <Tmin units="K" value="414.9" />
  <Tmax units="K" value="1500" />
  </SecondVirialCoefficient>
<LiquidViscosity name="Liquid viscosity" units="Pa.s">
  <eqno value="101" />
  <A value="-10.832" />
  <B value="1659.3" />
  <C value="-0.039017" />
  <D value="-1.1543E-07" />
  <E value="2" />
  <Tmin units="K" value="333.5" />
  <Tmax units="K" value="729" />
  </LiquidViscosity>
<VaporViscosity name="Vapour viscosity" units="Pa.s">
  <eqno value="102" />
  <A value="5.542E-08" />
  <B value="0.87669" />
  <C value="123.7" />
  <D value="-14104" />
  <Tmin units="K" value="333.5" />
  <Tmax units="K" value="1000" />
  </VaporViscosity>
<LiquidThermalConductivity name="Liquid thermal conductivity" units="W/m/K">
  <eqno value="16" />
  <A value="-0.040762" />
  <B value="-52.269" />
  <C value="-1.2013" />
  <D value="-0.001172" />
  <E value="-1.6247E-07" />
  <Tmin units="K" value="333.5" />
  <Tmax units="K" value="583.15" />
  </LiquidThermalConductivity>
<VaporThermalConductivity name="Vapour thermal conductivity" units="W/m/K">
  <eqno value="102" />
  <A value="0.0000021936" />
  <B value="1.4453" />
  <C value="-128.48" />
  <D value="46604" />
  <Tmin units="K" value="333.5" />
  <Tmax units="K" value="1000" />
  </VaporThermalConductivity>
<SurfaceTension name="Surface tension" units="N/m">
  <eqno value="106" />
  <A value="0.086" />
  <B value="1.222" />
  <C value="0" />
  <D value="0" />
  <E value="0" />
  <Tmin units="K" value="333.5" />
  <Tmax units="K" value="829.8" />
  </SurfaceTension>
<RPPHeatCapacityCp name="Ideal gas heat capacity (RPP)" units="J/kmol/K">
  <eqno value="4" />
  <A value="-72351" />
  <B value="1102.3" />
  <C value="-0.77741" />
  <D value="0.00020116" />
  <Tmin units="K" value="273" />
  <Tmax units="K" value="1500" />
  </RPPHeatCapacityCp>
<AntoineVaporPressure name="Antoine" units="Pa">
  <eqno value="10" />
  <A value="21.007" />
  <B value="3922.8" />
  <C value="-169.93" />
  <Tmin units="K" value="516.35" />
  <Tmax units="K" value="725.32" />
  </AntoineVaporPressure>
<LiquidViscosityRPS name="Liquid viscosity (RPS)" units="Pa.s">
  <eqno value="12" />
  <A value="-3.4659" />
  <B value="-0.0085149" />
  <Tmin units="K" value="333.5" />
  <Tmax units="K" value="583.15" />
  </LiquidViscosityRPS>
<COSTALDVolume name="COSTLD characteristic volume (V*)" units="m3/kmol" value="0.683837" />
<DiameterLJ name="Lennard Jones diameter" units="m" value="6.562071E-10" />
<EnergyLJ name="Lennard Jones energy" units="K" value="727.6315" />
<RacketParameter name="Rackett parameter" units="_" value="0.302" />
<FullerVolume name="Fuller et al. diffusion volume" units="_" value="143.191" />
<Parachor name="Parachor" units="kg0.25.m3/s0.5/kmol" value="0.0940873" />
<Charge name="Charge" units="_" value="0" />
<CostaldAcentricFactor name="SRK acentric factor" units="_" value="0.569717" />
<WilsonVolume name="Wilson volume" units="m3/kmol" value="0.2076" />
<UniquacR name="UNIQUAC r" units="_" value="7.6308" />
<UniquacQ name="UNIQUAC q" units="_" value="5.496" />
<ChaoSeaderAcentricFactor name="Chao-Seader acentric factor" units="_" value="0.569717" />
<ChaoSeaderSolubilityParameter name="Chao-Seader solubility parameter" units="J0.5/m1.5" value="20480" />
<ChaoSeaderLiquidVolume name="Chao-Seader liquid volume" units="m3/kmol" value="0.2076" />
<UnifacLLE name="UNIFAC-LLE">
  <group id="10" value="0" />
  </UnifacLLE>
<ModifiedUnifac name="Modified UNIFAC">
  <group id="9" value="10" />
  <group id="10" value="2" />
  <group id="201" value="1" />
  </ModifiedUnifac>
<CAS name="CAS number" value="882-33-7" />
<Smiles name="SMILES" value="C1=CC=C(C=C1)SSC2=CC=CC=C2" />
</compound>

