<compound>
<LibraryIndex name="Index" value="13125" />
<CompoundID name="Name" value="diphenyl carbonate" />
<StructureFormula name="Structure" value="(C6H5)2(OCOO)" />
<Family name="Family" value="45" />
<CriticalTemperature name="Critical temperature" units="K" value="795.1034" />
<CriticalPressure name="Critical pressure" units="Pa" value="2796493" />
<CriticalVolume name="Critical volume" units="m3/kmol" value="0.59685" />
<CriticalCompressibility name="Critical compressibility factor" units="_" value="0.251145" />
<NormalBoilingPointTemperature name="Normal boiling point" units="K" value="572.99" />
<NormalMeltingPointTemperature name="Melting point" units="K" value="352.15" />
<MolecularWeight name="Molecular weight" units="kg/kmol" value="214.2167" />
<LiquidVolumeAtNormalBoilingPoint name="Liquid molar volume at normal boiling point" units="m3/kmol" value="0.18261" />
<AcentricityFactor name="Acentric factor" units="_" value="0.616294" />
<RadiusOfGyration name="Radius of gyration" units="m" value="4.600808E-10" />
<SolubilityParameter name="Solubility parameter" units="J0.5/m1.5" value="18788.28" />
<DipoleMoment name="Dipole moment" units="Coulomb.m" value="0" />
<VanDerWaalsVolume name="Van der Waals volume" units="m3/kmol" value="0.115626" />
<VanDerWaalsArea name="Van der Waals area" units="m2/kmol" value="1.4085E+09" />
<HeatOfFormation name="IG heat of formation" units="J/kmol" value="-3.1495E+08" />
<GibbsEnergyOfFormation name="IG Gibbs energy of formation" units="J/kmol" value="-1.5702E+08" />
<AbsEntropy name="IG absolute entropy" units="J/kmol/K" value="602489.2" />
<HeatOfCombustion name="Standard net heat of combustion LHV" units="J/kmol" value="-6.17327E+09" />
<VaporPressure name="Vapour pressure" units="Pa">
  <eqno value="10" />
  <A value="23.41177" />
  <B value="6810.358" />
  <C value="0" />
  <Tmin units="K" value="273" />
  <Tmax units="K" value="795.103" />
  </VaporPressure>
<HeatOfVaporization name="Heat of vaporization" units="J/kmol">
  <eqno value="106" />
  <A value="8.897355E+07" />
  <B value="0.38" />
  <C value="0" />
  <D value="0" />
  <E value="0" />
  <Tmin units="K" value="401.093" />
  <Tmax units="K" value="799.32" />
  </HeatOfVaporization>
<LiquidHeatCapacityCp name="Liquid heat capacity" units="J/kmol/K">
  <eqno value="3" />
  <A value="-164882.8" />
  <B value="994.6407" />
  <C value="-0.464037" />
  <Tmin units="K" value="362.5371" />
  <Tmax units="K" value="760.5541" />
  </LiquidHeatCapacityCp>
<IdealGasHeatCapacityCp name="Ideal gas heat capacity" units="J/kmol/K">
  <eqno value="16" />
  <A value="98284.81" />
  <B value="-500" />
  <C value="13.35674" />
  <D value="0" />
  <E value="0" />
  <Tmin units="K" value="255" />
  <Tmax units="K" value="1500" />
  </IdealGasHeatCapacityCp>
<LiquidViscosity name="Liquid viscosity" units="Pa.s">
  <eqno value="101" />
  <A value="-49.44655" />
  <B value="15931.93" />
  <C value="0" />
  <D value="0" />
  <E value="0" />
  <Tmin units="K" value="311" />
  <Tmax units="K" value="760.5541" />
  </LiquidViscosity>
<VaporViscosity name="Vapour viscosity" units="Pa.s">
  <eqno value="2" />
  <A value="-5.128717E-07" />
  <B value="1.011284E-08" />
  <Tmin units="K" value="517.9102" />
  <Tmax units="K" value="1000" />
  </VaporViscosity>
<LiquidThermalConductivity name="Liquid thermal conductivity" units="W/m/K">
  <eqno value="3" />
  <A value="0.101839" />
  <B value="0.000518198" />
  <C value="-1.230409E-06" />
  <Tmin units="K" value="253.15" />
  <Tmax units="K" value="423.15" />
  </LiquidThermalConductivity>
<VaporThermalConductivity name="Vapour thermal conductivity" units="W/m/K">
  <eqno value="3" />
  <A value="-0.0506874" />
  <B value="0.00020251" />
  <C value="-1.156856E-07" />
  <Tmin units="K" value="473.15" />
  <Tmax units="K" value="643.15" />
  </VaporThermalConductivity>
<SurfaceTension name="Surface tension" units="N/m">
  <eqno value="116" />
  <A value="0" />
  <B value="0" />
  <C value="0" />
  <D value="0.0416997" />
  <E value="0.0416997" />
  <Tmin units="K" value="352.15" />
  <Tmax units="K" value="795.1034" />
  </SurfaceTension>
<RPPHeatCapacityCp name="Ideal gas heat capacity (RPP)" units="J/kmol/K">
  <eqno value="100" />
  <A value="29100.65" />
  <B value="0" />
  <C value="0" />
  <D value="0" />
  <E value="0" />
  <Tmin units="K" value="273" />
  <Tmax units="K" value="1500" />
  </RPPHeatCapacityCp>
<AntoineVaporPressure name="Antoine" units="Pa">
  <eqno value="10" />
  <A value="21.10686" />
  <B value="4305.355" />
  <C value="-123.6156" />
  <Tmin units="K" value="458.392" />
  <Tmax units="K" value="795.103" />
  </AntoineVaporPressure>
<COSTALDVolume name="COSTLD characteristic volume (V*)" units="m3/kmol" value="0.659084" />
<DiameterLJ name="Lennard Jones diameter" units="m" value="7.671221E-10" />
<EnergyLJ name="Lennard Jones energy" units="K" value="355.1485" />
<RacketParameter name="Rackett parameter" units="_" value="0.251145" />
<FullerVolume name="Fuller et al. diffusion volume" units="_" value="211.53" />
<Parachor name="Parachor" units="kg0.25.m3/s0.5/kmol" value="0.0792045" />
<SpecificGravity name="Specific gravity" units="_" value="1.272" />
<Charge name="Charge" units="_" value="0" />
<CostaldAcentricFactor name="SRK acentric factor" units="_" value="0.55805" />
<WilsonVolume name="Wilson volume" units="m3/kmol" value="0.18261" />
<UniquacR name="UNIQUAC r" units="_" value="7.6234" />
<UniquacQ name="UNIQUAC q" units="_" value="5.63" />
<UniquacQP name="UNIQUAC q'" units="_" value="5.634" />
<ChaoSeaderAcentricFactor name="Chao-Seader acentric factor" units="_" value="0.55805" />
<ChaoSeaderLiquidVolume name="Chao-Seader liquid volume" units="m3/kmol" value="0.18261" />
<UnifacVLE name="UNIFAC">
  <group id="10" value="10" />
  <group id="11" value="2" />
  <group id="120" value="1" />
  </UnifacVLE>
<Asog name="ASOG">
  <group id="10" value="10" />
  <group id="11" value="2" />
  <group id="19" value="1" />
  <group id="22" value="1" />
  </Asog>
<Umr name="UMR">
  <group id="10" value="10" />
  <group id="11" value="2" />
  <group id="120" value="1" />
  </Umr>
<CAS name="CAS number" value="102-09-0" />
<Smiles name="SMILES" value="C1=CC=C(C=C1)OC(=O)OC2=CC=CC=C2" />
</compound>

