<compound>
<LibraryIndex name="Index" value="1102" />
<CompoundID name="Name" value="ethanol" />
<StructureFormula name="Structure" value="CH3CH2OH" />
<Family name="Family" value="27" />
<CriticalTemperature name="Critical temperature" units="K" value="513.92" />
<CriticalPressure name="Critical pressure" units="Pa" value="6148000" />
<CriticalVolume name="Critical volume" units="m3/kmol" value="0.167" />
<CriticalCompressibility name="Critical compressibility factor" units="_" value="0.24" />
<NormalBoilingPointTemperature name="Normal boiling point" units="K" value="351.8" />
<NormalMeltingPointTemperature name="Melting point" units="K" value="159.05" />
<TriplePointTemperature name="Triple point temperature" units="K" value="159.05" />
<TriplePointPressure name="Triple point pressure" units="Pa" value="0.000495642" />
<MolecularWeight name="Molecular weight" units="kg/kmol" value="46.06844" />
<LiquidVolumeAtNormalBoilingPoint name="Liquid molar volume at normal boiling point" units="m3/kmol" value="0.05868" />
<AcentricityFactor name="Acentric factor" units="_" value="0.649" />
<RadiusOfGyration name="Radius of gyration" units="m" value="2.259E-10" />
<SolubilityParameter name="Solubility parameter" units="J0.5/m1.5" value="26140" />
<DipoleMoment name="Dipole moment" units="Coulomb.m" value="5.64E-30" />
<VanDerWaalsVolume name="Van der Waals volume" units="m3/kmol" value="0.03194" />
<VanDerWaalsArea name="Van der Waals area" units="m2/kmol" value="4.93E+08" />
<HeatOfFormation name="IG heat of formation" units="J/kmol" value="-2.3495E+08" />
<GibbsEnergyOfFormation name="IG Gibbs energy of formation" units="J/kmol" value="-1.6785E+08" />
<AbsEntropy name="IG absolute entropy" units="J/kmol/K" value="280640" />
<HeatOfFusionAtMeltingPoint name="Heat of fusion at melting point" units="J/kmol" value="4931000" />
<MatthiasCopemanC1 name="Mathias-Copeman C1" units="_" value="1.3327" />
<HeatOfCombustion name="Standard net heat of combustion LHV" units="J/kmol" value="-1.235E+09" />
<SolidDensity name="Solid density" units="kmol/m3">
  <eqno value="2" />
  <A value="24.584" />
  <B value="-0.016742" />
  <Tmin units="K" value="63.62" />
  <Tmax units="K" value="159.05" />
  </SolidDensity>
<LiquidDensity name="Liquid density" units="kmol/m3">
  <eqno value="105" />
  <A value="1.3539" />
  <B value="0.24957" />
  <C value="515.66" />
  <D value="0.22099" />
  <Tmin units="K" value="159" />
  <Tmax units="K" value="515.65" />
  </LiquidDensity>
<VaporPressure name="Vapour pressure" units="Pa">
  <eqno value="101" />
  <A value="88.0754" />
  <B value="-7652.06" />
  <C value="-9.471507" />
  <D value="5.928087E-06" />
  <E value="2" />
  <Tmin units="K" value="159.05" />
  <Tmax units="K" value="516.25" />
  </VaporPressure>
<HeatOfVaporization name="Heat of vaporization" units="J/kmol">
  <eqno value="106" />
  <A value="6.3899E+07" />
  <B value="1.2782" />
  <C value="-2.673" />
  <D value="2.7973" />
  <E value="-1.0209" />
  <Tmin units="K" value="159.05" />
  <Tmax units="K" value="515.65" />
  </HeatOfVaporization>
<SolidHeatCapacityCp name="Solid heat capacity" units="J/kmol/K">
  <eqno value="100" />
  <A value="-12797" />
  <B value="1133.1" />
  <C value="-7.3716" />
  <D value="0.021296" />
  <E value="-0.0000012564" />
  <Tmin units="K" value="20" />
  <Tmax units="K" value="159" />
  </SolidHeatCapacityCp>
<LiquidHeatCapacityCp name="Liquid heat capacity" units="J/kmol/K">
  <eqno value="16" />
  <A value="76684" />
  <B value="675.72" />
  <C value="-0.093875" />
  <D value="0.037153" />
  <E value="-0.000031214" />
  <Tmin units="K" value="158.5" />
  <Tmax units="K" value="399.82" />
  </LiquidHeatCapacityCp>
<IdealGasHeatCapacityCp name="Ideal gas heat capacity" units="J/kmol/K">
  <eqno value="16" />
  <A value="44530" />
  <B value="-660.89" />
  <C value="12.153" />
  <D value="0.000019532" />
  <E value="-1.5636E-08" />
  <Tmin units="K" value="150" />
  <Tmax units="K" value="1500" />
  </IdealGasHeatCapacityCp>
<SecondVirialCoefficient name="Second virial coefficient" units="m3/kmol">
  <eqno value="104" />
  <A value="0.03174" />
  <B value="-35.721" />
  <C value="-17.382" />
  <D value="-6686.6" />
  <E value="-21212" />
  <Tmin units="K" value="263" />
  <Tmax units="K" value="2000" />
  </SecondVirialCoefficient>
<LiquidViscosity name="Liquid viscosity" units="Pa.s">
  <eqno value="101" />
  <A value="8.061" />
  <B value="774.76" />
  <C value="-3.0701" />
  <D value="-4.3408E-09" />
  <E value="2" />
  <Tmin units="K" value="200" />
  <Tmax units="K" value="473" />
  </LiquidViscosity>
<VaporViscosity name="Vapour viscosity" units="Pa.s">
  <eqno value="102" />
  <A value="1.2467E-07" />
  <B value="0.7862" />
  <C value="76.034" />
  <D value="-2017.3" />
  <Tmin units="K" value="200" />
  <Tmax units="K" value="1000" />
  </VaporViscosity>
<LiquidThermalConductivity name="Liquid thermal conductivity" units="W/m/K">
  <eqno value="16" />
  <A value="0.10247" />
  <B value="-120.39" />
  <C value="-0.48487" />
  <D value="-0.0071706" />
  <E value="0.000003461" />
  <Tmin units="K" value="159.05" />
  <Tmax units="K" value="473" />
  </LiquidThermalConductivity>
<VaporThermalConductivity name="Vapour thermal conductivity" units="W/m/K">
  <eqno value="102" />
  <A value="-0.01001" />
  <B value="0.64925" />
  <C value="-7360.5" />
  <D value="-255250" />
  <Tmin units="K" value="159.05" />
  <Tmax units="K" value="1000" />
  </VaporThermalConductivity>
<SurfaceTension name="Surface tension" units="N/m">
  <eqno value="16" />
  <A value="-0.078773" />
  <B value="19.874" />
  <C value="-2.3731" />
  <D value="0.00067227" />
  <E value="-0.0000021132" />
  <Tmin units="K" value="273.15" />
  <Tmax units="K" value="503.15" />
  </SurfaceTension>
<RPPHeatCapacityCp name="Ideal gas heat capacity (RPP)" units="J/kmol/K">
  <eqno value="100" />
  <A value="36550" />
  <B value="5.2215" />
  <C value="0.46112" />
  <D value="-0.00058401" />
  <E value="2.2324E-07" />
  <Tmin units="K" value="50" />
  <Tmax units="K" value="1000" />
  </RPPHeatCapacityCp>
<RelativeStaticPermittivity name="Relative static permittivity" units="_">
  <eqno value="121" />
  <A value="-25.13869" />
  <B value="17834.39" />
  <C value="-2.936184" />
  <D value="0.0226118" />
  <E value="1.015427" />
  <Tmin units="K" value="288" />
  <Tmax units="K" value="510" />
  </RelativeStaticPermittivity>
<AntoineVaporPressure name="Antoine" units="Pa">
  <eqno value="10" />
  <A value="22.994" />
  <B value="3337.3" />
  <C value="-60.406" />
  <Tmin units="K" value="308.5" />
  <Tmax units="K" value="458.7" />
  </AntoineVaporPressure>
<LiquidViscosityRPS name="Liquid viscosity (RPS)" units="Pa.s">
  <eqno value="13" />
  <A value="2.9282" />
  <B value="-0.045463" />
  <C value="0.000042849" />
  <Tmin units="K" value="200" />
  <Tmax units="K" value="440" />
  </LiquidViscosityRPS>
<COSTALDVolume name="COSTLD characteristic volume (V*)" units="m3/kmol" value="0.169282" />
<DiameterLJ name="Lennard Jones diameter" units="m" value="4.31E-10" />
<EnergyLJ name="Lennard Jones energy" units="K" value="431" />
<FullerVolume name="Fuller et al. diffusion volume" units="_" value="51.77" />
<MatthiasCopemanC2 name="Mathias-Copeman C2" units="_" value="0.96946" />
<Parachor name="Parachor" units="kg0.25.m3/s0.5/kmol" value="0.022601" />
<SpecificGravity name="Specific gravity" units="_" value="0.79598" />
<Charge name="Charge" units="_" value="0" />
<CostaldAcentricFactor name="SRK acentric factor" units="_" value="0.634" />
<WilsonVolume name="Wilson volume" units="m3/kmol" value="0.0586177" />
<UniquacR name="UNIQUAC r" units="_" value="2.11" />
<UniquacQ name="UNIQUAC q" units="_" value="1.97" />
<UniquacQP name="UNIQUAC q'" units="_" value="0.92" />
<ApiSrkS1 name="API-SRK s1" units="_" value="1.678665" />
<ApiSrkS2 name="API-SRK s2" units="_" value="-0.216396" />
<MatthiasCopemanC3 name="Mathias-Copeman C3" units="_" value="-3.1879" />
<ChaoSeaderAcentricFactor name="Chao-Seader acentric factor" units="_" value="0.634" />
<ChaoSeaderSolubilityParameter name="Chao-Seader solubility parameter" units="J0.5/m1.5" value="26133.3" />
<ChaoSeaderLiquidVolume name="Chao-Seader liquid volume" units="m3/kmol" value="0.0586177" />
<UnifacVLE name="UNIFAC">
  <group id="1" value="1" />
  <group id="2" value="1" />
  <group id="15" value="1" />
  </UnifacVLE>
<UnifacLLE name="UNIFAC-LLE">
  <group id="1" value="1" />
  <group id="2" value="1" />
  <group id="14" value="1" />
  </UnifacLLE>
<Asog name="ASOG">
  <group id="1" value="1" />
  <group id="2" value="1" />
  <group id="15" value="1" />
  </Asog>
<GCmethod name="PPR78">
  <group id="1" value="1" />
  <group id="2" value="1" />
  <group id="41" value="1" />
  </GCmethod>
<Umr name="UMR">
  <group id="1" value="1" />
  <group id="2" value="1" />
  <group id="15" value="1" />
  </Umr>
<ModifiedUnifac name="Modified UNIFAC">
  <group id="1" value="1" />
  <group id="2" value="1" />
  <group id="14" value="1" />
  </ModifiedUnifac>
<CAS name="CAS number" value="64-17-5" />
<Smiles name="SMILES" value="CCO" />
</compound>

