<compound>
<LibraryIndex name="Index" value="1302" />
<CompoundID name="Name" value="ethyl formate" />
<StructureFormula name="Structure" value="HCOOCH2CH3" />
<Family name="Family" value="55" />
<CriticalTemperature name="Critical temperature" units="K" value="508.5" />
<CriticalPressure name="Critical pressure" units="Pa" value="4740000" />
<CriticalVolume name="Critical volume" units="m3/kmol" value="0.229" />
<CriticalCompressibility name="Critical compressibility factor" units="_" value="0.257" />
<NormalBoilingPointTemperature name="Normal boiling point" units="K" value="327.47" />
<NormalMeltingPointTemperature name="Melting point" units="K" value="193.55" />
<TriplePointTemperature name="Triple point temperature" units="K" value="193.55" />
<TriplePointPressure name="Triple point pressure" units="Pa" value="18.1186" />
<MolecularWeight name="Molecular weight" units="kg/kmol" value="74.07854" />
<LiquidVolumeAtNormalBoilingPoint name="Liquid molar volume at normal boiling point" units="m3/kmol" value="0.08093" />
<AcentricityFactor name="Acentric factor" units="_" value="0.282" />
<RadiusOfGyration name="Radius of gyration" units="m" value="2.963E-10" />
<SolubilityParameter name="Solubility parameter" units="J0.5/m1.5" value="19070" />
<DipoleMoment name="Dipole moment" units="Coulomb.m" value="6.44E-30" />
<VanDerWaalsVolume name="Van der Waals volume" units="m3/kmol" value="0.04274" />
<VanDerWaalsArea name="Van der Waals area" units="m2/kmol" value="6.44E+08" />
<HeatOfFormation name="IG heat of formation" units="J/kmol" value="-3.883E+08" />
<GibbsEnergyOfFormation name="IG Gibbs energy of formation" units="J/kmol" value="-3.031E+08" />
<AbsEntropy name="IG absolute entropy" units="J/kmol/K" value="328200" />
<HeatOfFusionAtMeltingPoint name="Heat of fusion at melting point" units="J/kmol" value="9204800" />
<MatthiasCopemanC1 name="Mathias-Copeman C1" units="_" value="0.91636" />
<HeatOfCombustion name="Standard net heat of combustion LHV" units="J/kmol" value="-1.50696E+09" />
<SolidDensity name="Solid density" units="kmol/m3">
  <eqno value="2" />
  <A value="17.766" />
  <B value="-0.010171" />
  <Tmin units="K" value="77.42" />
  <Tmax units="K" value="193.55" />
  </SolidDensity>
<LiquidDensity name="Liquid density" units="kmol/m3">
  <eqno value="105" />
  <A value="0.85568" />
  <B value="0.22882" />
  <C value="508.5" />
  <D value="0.23792" />
  <Tmin units="K" value="193.55" />
  <Tmax units="K" value="508.45" />
  </LiquidDensity>
<VaporPressure name="Vapour pressure" units="Pa">
  <eqno value="101" />
  <A value="69.04518" />
  <B value="-5678.642" />
  <C value="-7.031396" />
  <D value="0.0000050057" />
  <E value="2" />
  <Tmin units="K" value="193.55" />
  <Tmax units="K" value="508.45" />
  </VaporPressure>
<HeatOfVaporization name="Heat of vaporization" units="J/kmol">
  <eqno value="106" />
  <A value="5.9813E+07" />
  <B value="2.1931" />
  <C value="-4.6587" />
  <D value="4.7089" />
  <E value="-1.7696" />
  <Tmin units="K" value="193.55" />
  <Tmax units="K" value="508.45" />
  </HeatOfVaporization>
<SolidHeatCapacityCp name="Solid heat capacity" units="J/kmol/K">
  <eqno value="1" />
  <A value="104870" />
  <Tmin units="K" value="298" />
  <Tmax units="K" value="5" />
  </SolidHeatCapacityCp>
<LiquidHeatCapacityCp name="Liquid heat capacity" units="J/kmol/K">
  <eqno value="16" />
  <A value="115910" />
  <B value="228.3" />
  <C value="4.0783" />
  <D value="0.027366" />
  <E value="-0.000029781" />
  <Tmin units="K" value="254.2" />
  <Tmax units="K" value="374.2" />
  </LiquidHeatCapacityCp>
<IdealGasHeatCapacityCp name="Ideal gas heat capacity" units="J/kmol/K">
  <eqno value="16" />
  <A value="52378" />
  <B value="-459.08" />
  <C value="11.875" />
  <D value="0.00065506" />
  <E value="-2.4832E-07" />
  <Tmin units="K" value="100" />
  <Tmax units="K" value="1500" />
  </IdealGasHeatCapacityCp>
<SecondVirialCoefficient name="Second virial coefficient" units="m3/kmol">
  <eqno value="104" />
  <A value="0.12511" />
  <B value="-132.24" />
  <C value="-21.864" />
  <D value="-2112.2" />
  <E value="1102.8" />
  <Tmin units="K" value="254.2" />
  <Tmax units="K" value="1779.4" />
  </SecondVirialCoefficient>
<LiquidViscosity name="Liquid viscosity" units="Pa.s">
  <eqno value="101" />
  <A value="-8.9483" />
  <B value="848.56" />
  <C value="-0.31567" />
  <D value="2.8582E-07" />
  <E value="2" />
  <Tmin units="K" value="245" />
  <Tmax units="K" value="345" />
  </LiquidViscosity>
<VaporViscosity name="Vapour viscosity" units="Pa.s">
  <eqno value="102" />
  <A value="6.0691E-07" />
  <B value="0.60378" />
  <C value="450.04" />
  <D value="-20466" />
  <Tmin units="K" value="193.55" />
  <Tmax units="K" value="1000" />
  </VaporViscosity>
<LiquidThermalConductivity name="Liquid thermal conductivity" units="W/m/K">
  <eqno value="16" />
  <A value="-0.030927" />
  <B value="19.999" />
  <C value="-1.4911" />
  <D value="-0.000052048" />
  <E value="-0.0000024111" />
  <Tmin units="K" value="193.55" />
  <Tmax units="K" value="433.15" />
  </LiquidThermalConductivity>
<VaporThermalConductivity name="Vapour thermal conductivity" units="W/m/K">
  <eqno value="102" />
  <A value="381.39" />
  <B value="0.9159" />
  <C value="1.8E+09" />
  <D value="-1.1462E+10" />
  <Tmin units="K" value="193.55" />
  <Tmax units="K" value="1000" />
  </VaporThermalConductivity>
<SurfaceTension name="Surface tension" units="N/m">
  <eqno value="16" />
  <A value="-0.02094" />
  <B value="32.394" />
  <C value="-2.9299" />
  <D value="0.00035555" />
  <E value="-0.0000045837" />
  <Tmin units="K" value="193.55" />
  <Tmax units="K" value="508.4" />
  </SurfaceTension>
<RPPHeatCapacityCp name="Ideal gas heat capacity (RPP)" units="J/kmol/K">
  <eqno value="4" />
  <A value="28653" />
  <B value="223.54" />
  <C value="-0.054573" />
  <D value="-0.0000084089" />
  <Tmin units="K" value="100" />
  <Tmax units="K" value="1500" />
  </RPPHeatCapacityCp>
<RelativeStaticPermittivity name="Relative static permittivity" units="_">
  <eqno value="120" />
  <A value="-5.722828" />
  <B value="-3550" />
  <C value="-21.3" />
  <Tmin units="K" value="279.15" />
  <Tmax units="K" value="449.15" />
  </RelativeStaticPermittivity>
<AntoineVaporPressure name="Antoine" units="Pa">
  <eqno value="10" />
  <A value="21.231" />
  <B value="2723.8" />
  <C value="-46.87" />
  <Tmin units="K" value="309.55" />
  <Tmax units="K" value="453.15" />
  </AntoineVaporPressure>
<LiquidViscosityRPS name="Liquid viscosity (RPS)" units="Pa.s">
  <eqno value="13" />
  <A value="-1.5155" />
  <B value="-0.032057" />
  <C value="0.000035967" />
  <Tmin units="K" value="245" />
  <Tmax units="K" value="345" />
  </LiquidViscosityRPS>
<COSTALDVolume name="COSTLD characteristic volume (V*)" units="m3/kmol" value="0.22605" />
<DiameterLJ name="Lennard Jones diameter" units="m" value="5.82913E-10" />
<EnergyLJ name="Lennard Jones energy" units="K" value="249.4384" />
<FullerVolume name="Fuller et al. diffusion volume" units="_" value="73.78" />
<MatthiasCopemanC2 name="Mathias-Copeman C2" units="_" value="-0.06979" />
<Parachor name="Parachor" units="kg0.25.m3/s0.5/kmol" value="0.0317" />
<SpecificGravity name="Specific gravity" units="_" value="0.928963" />
<Charge name="Charge" units="_" value="0" />
<CostaldAcentricFactor name="SRK acentric factor" units="_" value="0.28499" />
<WilsonVolume name="Wilson volume" units="m3/kmol" value="0.0808277" />
<UniquacR name="UNIQUAC r" units="_" value="2.8175" />
<UniquacQ name="UNIQUAC q" units="_" value="2.576" />
<MatthiasCopemanC3 name="Mathias-Copeman C3" units="_" value="0.17409" />
<ChaoSeaderAcentricFactor name="Chao-Seader acentric factor" units="_" value="0.285" />
<ChaoSeaderSolubilityParameter name="Chao-Seader solubility parameter" units="J0.5/m1.5" value="18938.7" />
<ChaoSeaderLiquidVolume name="Chao-Seader liquid volume" units="m3/kmol" value="0.0808277" />
<UnifacVLE name="UNIFAC">
  <group id="1" value="1" />
  <group id="2" value="1" />
  <group id="24" value="1" />
  </UnifacVLE>
<Asog name="ASOG">
  <group id="1" value="1" />
  <group id="2" value="1" />
  <group id="23" value="1" />
  </Asog>
<Umr name="UMR">
  <group id="1" value="1" />
  <group id="2" value="1" />
  <group id="24" value="1" />
  </Umr>
<ModifiedUnifac name="Modified UNIFAC">
  <group id="1" value="1" />
  <group id="2" value="1" />
  <group id="23" value="1" />
  </ModifiedUnifac>
<CAS name="CAS number" value="109-94-4" />
<Smiles name="SMILES" value="CCOC(=O)" />
</compound>

