<compound>
<LibraryIndex name="Index" value="1503" />
<CompoundID name="Name" value="ethyl chloride" />
<StructureFormula name="Structure" value="CH3CH2Cl" />
<Family name="Family" value="65" />
<CriticalTemperature name="Critical temperature" units="K" value="460.3" />
<CriticalPressure name="Critical pressure" units="Pa" value="5300000" />
<CriticalVolume name="Critical volume" units="m3/kmol" value="0.199" />
<CriticalCompressibility name="Critical compressibility factor" units="_" value="0.276" />
<NormalBoilingPointTemperature name="Normal boiling point" units="K" value="285.42" />
<NormalMeltingPointTemperature name="Melting point" units="K" value="136.75" />
<TriplePointTemperature name="Triple point temperature" units="K" value="134.8" />
<TriplePointPressure name="Triple point pressure" units="Pa" value="0.1249" />
<MolecularWeight name="Molecular weight" units="kg/kmol" value="64.5141" />
<LiquidVolumeAtNormalBoilingPoint name="Liquid molar volume at normal boiling point" units="m3/kmol" value="0.07258" />
<AcentricityFactor name="Acentric factor" units="_" value="0.194" />
<RadiusOfGyration name="Radius of gyration" units="m" value="2.267E-10" />
<SolubilityParameter name="Solubility parameter" units="J0.5/m1.5" value="17250" />
<DipoleMoment name="Dipole moment" units="Coulomb.m" value="6.84E-30" />
<VanDerWaalsVolume name="Van der Waals volume" units="m3/kmol" value="0.03552" />
<VanDerWaalsArea name="Van der Waals area" units="m2/kmol" value="5.27E+08" />
<HeatOfFormation name="IG heat of formation" units="J/kmol" value="-1.1226E+08" />
<GibbsEnergyOfFormation name="IG Gibbs energy of formation" units="J/kmol" value="-6.0499E+07" />
<AbsEntropy name="IG absolute entropy" units="J/kmol/K" value="275780" />
<HeatOfFusionAtMeltingPoint name="Heat of fusion at melting point" units="J/kmol" value="4451800" />
<MatthiasCopemanC1 name="Mathias-Copeman C1" units="_" value="0.77201" />
<HeatOfCombustion name="Standard net heat of combustion LHV" units="J/kmol" value="-1.2849E+09" />
<SolidDensity name="Solid density" units="kmol/m3">
  <eqno value="2" />
  <A value="21.614" />
  <B value="-0.018098" />
  <Tmin units="K" value="53.92" />
  <Tmax units="K" value="134.8" />
  </SolidDensity>
<LiquidDensity name="Liquid density" units="kmol/m3">
  <eqno value="105" />
  <A value="1.3553" />
  <B value="0.26895" />
  <C value="460.36" />
  <D value="0.24994" />
  <Tmin units="K" value="134.8" />
  <Tmax units="K" value="460.35" />
  </LiquidDensity>
<VaporPressure name="Vapour pressure" units="Pa">
  <eqno value="101" />
  <A value="51.28342" />
  <B value="-4206.393" />
  <C value="-4.478839" />
  <D value="3.812824E-06" />
  <E value="2" />
  <Tmin units="K" value="134.8" />
  <Tmax units="K" value="460.35" />
  </VaporPressure>
<HeatOfVaporization name="Heat of vaporization" units="J/kmol">
  <eqno value="106" />
  <A value="3.61548E+07" />
  <B value="0.981924" />
  <C value="-2.026046" />
  <D value="2.205811" />
  <E value="-0.774155" />
  <Tmin units="K" value="134.8" />
  <Tmax units="K" value="443.22" />
  </HeatOfVaporization>
<SolidHeatCapacityCp name="Solid heat capacity" units="J/kmol/K">
  <eqno value="100" />
  <A value="-13544" />
  <B value="1361" />
  <C value="-5.3607" />
  <D value="-0.058393" />
  <E value="0.00049341" />
  <Tmin units="K" value="20" />
  <Tmax units="K" value="134.8" />
  </SolidHeatCapacityCp>
<LiquidHeatCapacityCp name="Liquid heat capacity" units="J/kmol/K">
  <eqno value="16" />
  <A value="95946" />
  <B value="-7247" />
  <C value="67.469" />
  <D value="-0.16696" />
  <E value="0.00017795" />
  <Tmin units="K" value="134.8" />
  <Tmax units="K" value="340" />
  </LiquidHeatCapacityCp>
<IdealGasHeatCapacityCp name="Ideal gas heat capacity" units="J/kmol/K">
  <eqno value="16" />
  <A value="12765.96" />
  <B value="-117.0948" />
  <C value="11.04141" />
  <D value="0.00111696" />
  <E value="-3.565557E-07" />
  <Tmin units="K" value="10" />
  <Tmax units="K" value="1500" />
  </IdealGasHeatCapacityCp>
<SecondVirialCoefficient name="Second virial coefficient" units="m3/kmol">
  <eqno value="104" />
  <A value="0.11811" />
  <B value="-121.34" />
  <C value="-10.857" />
  <D value="-276.9" />
  <E value="96.111" />
  <Tmin units="K" value="230.2" />
  <Tmax units="K" value="1841.6" />
  </SecondVirialCoefficient>
<LiquidViscosity name="Liquid viscosity" units="Pa.s">
  <eqno value="101" />
  <A value="-10.065" />
  <B value="698.32" />
  <C value="-0.097691" />
  <D value="8.0018E-08" />
  <E value="2" />
  <Tmin units="K" value="150" />
  <Tmax units="K" value="433" />
  </LiquidViscosity>
<VaporViscosity name="Vapour viscosity" units="Pa.s">
  <eqno value="102" />
  <A value="3.2572E-07" />
  <B value="0.66869" />
  <C value="165.43" />
  <D value="-2726.9" />
  <Tmin units="K" value="134.8" />
  <Tmax units="K" value="1000" />
  </VaporViscosity>
<LiquidThermalConductivity name="Liquid thermal conductivity" units="W/m/K">
  <eqno value="16" />
  <A value="0.062544" />
  <B value="150.84" />
  <C value="-4.3182" />
  <D value="0.012599" />
  <E value="-0.000031799" />
  <Tmin units="K" value="134.8" />
  <Tmax units="K" value="373.15" />
  </LiquidThermalConductivity>
<VaporThermalConductivity name="Vapour thermal conductivity" units="W/m/K">
  <eqno value="102" />
  <A value="-19.83" />
  <B value="0.20145" />
  <C value="-728060" />
  <D value="-2.7917E+08" />
  <Tmin units="K" value="134.8" />
  <Tmax units="K" value="1000" />
  </VaporThermalConductivity>
<SurfaceTension name="Surface tension" units="N/m">
  <eqno value="16" />
  <A value="-0.036834" />
  <B value="33.167" />
  <C value="-2.7206" />
  <D value="0.000040391" />
  <E value="-0.0000033391" />
  <Tmin units="K" value="134.8" />
  <Tmax units="K" value="443.22" />
  </SurfaceTension>
<RPPHeatCapacityCp name="Ideal gas heat capacity (RPP)" units="J/kmol/K">
  <eqno value="100" />
  <A value="25185" />
  <B value="82.189" />
  <C value="0.24669" />
  <D value="-0.00037831" />
  <E value="1.5556E-07" />
  <Tmin units="K" value="134.8" />
  <Tmax units="K" value="1000" />
  </RPPHeatCapacityCp>
<RelativeStaticPermittivity name="Relative static permittivity" units="_">
  <eqno value="120" />
  <A value="-8.394" />
  <B value="-4725" />
  <C value="-28.35" />
  <Tmin units="K" value="275" />
  <Tmax units="K" value="445" />
  </RelativeStaticPermittivity>
<AntoineVaporPressure name="Antoine" units="Pa">
  <eqno value="10" />
  <A value="21.412" />
  <B value="2616.2" />
  <C value="-20.799" />
  <Tmin units="K" value="276.6" />
  <Tmax units="K" value="408.95" />
  </AntoineVaporPressure>
<LiquidViscosityRPS name="Liquid viscosity (RPS)" units="Pa.s">
  <eqno value="13" />
  <A value="-1.7339" />
  <B value="-0.03541" />
  <C value="0.000044884" />
  <Tmin units="K" value="150" />
  <Tmax units="K" value="373.15" />
  </LiquidViscosityRPS>
<COSTALDVolume name="COSTLD characteristic volume (V*)" units="m3/kmol" value="0.1858" />
<DiameterLJ name="Lennard Jones diameter" units="m" value="4.45E-10" />
<EnergyLJ name="Lennard Jones energy" units="K" value="423" />
<FullerVolume name="Fuller et al. diffusion volume" units="_" value="64.35" />
<MatthiasCopemanC2 name="Mathias-Copeman C2" units="_" value="0" />
<Parachor name="Parachor" units="kg0.25.m3/s0.5/kmol" value="0.0268" />
<SpecificGravity name="Specific gravity" units="_" value="0.902494" />
<Charge name="Charge" units="_" value="0" />
<CostaldAcentricFactor name="SRK acentric factor" units="_" value="0.18795" />
<WilsonVolume name="Wilson volume" units="m3/kmol" value="0.0708426" />
<UniquacR name="UNIQUAC r" units="_" value="2.3665" />
<UniquacQ name="UNIQUAC q" units="_" value="2.112" />
<MatthiasCopemanC3 name="Mathias-Copeman C3" units="_" value="0" />
<ChaoSeaderAcentricFactor name="Chao-Seader acentric factor" units="_" value="0.190636" />
<ChaoSeaderSolubilityParameter name="Chao-Seader solubility parameter" units="J0.5/m1.5" value="17772.6" />
<ChaoSeaderLiquidVolume name="Chao-Seader liquid volume" units="m3/kmol" value="0.0708426" />
<UnifacVLE name="UNIFAC">
  <group id="1" value="1" />
  <group id="45" value="1" />
  </UnifacVLE>
<UnifacLLE name="UNIFAC-LLE">
  <group id="1" value="1" />
  <group id="31" value="1" />
  </UnifacLLE>
<Asog name="ASOG">
  <group id="1" value="1" />
  <group id="2" value="1" />
  <group id="35" value="1" />
  </Asog>
<Umr name="UMR">
  <group id="1" value="1" />
  <group id="45" value="1" />
  </Umr>
<ModifiedUnifac name="Modified UNIFAC">
  <group id="1" value="1" />
  <group id="44" value="1" />
  </ModifiedUnifac>
<CAS name="CAS number" value="75-00-3" />
<Smiles name="SMILES" value="CC[Cl]" />
</compound>

