<compound>
<LibraryIndex name="Index" value="1802" />
<CompoundID name="Name" value="ethyl mercaptan" />
<StructureFormula name="Structure" value="CH3CH2SH" />
<Family name="Family" value="41" />
<CriticalTemperature name="Critical temperature" units="K" value="499" />
<CriticalPressure name="Critical pressure" units="Pa" value="5490000" />
<CriticalVolume name="Critical volume" units="m3/kmol" value="0.207" />
<CriticalCompressibility name="Critical compressibility factor" units="_" value="0.274" />
<NormalBoilingPointTemperature name="Normal boiling point" units="K" value="308.15" />
<NormalMeltingPointTemperature name="Melting point" units="K" value="125.26" />
<TriplePointTemperature name="Triple point temperature" units="K" value="125.26" />
<TriplePointPressure name="Triple point pressure" units="Pa" value="0.00113837" />
<MolecularWeight name="Molecular weight" units="kg/kmol" value="62.13404" />
<LiquidVolumeAtNormalBoilingPoint name="Liquid molar volume at normal boiling point" units="m3/kmol" value="0.07458" />
<AcentricityFactor name="Acentric factor" units="_" value="0.189" />
<RadiusOfGyration name="Radius of gyration" units="m" value="2.363E-10" />
<SolubilityParameter name="Solubility parameter" units="J0.5/m1.5" value="18250" />
<DipoleMoment name="Dipole moment" units="Coulomb.m" value="5.27E-30" />
<VanDerWaalsVolume name="Van der Waals volume" units="m3/kmol" value="0.03871" />
<VanDerWaalsArea name="Van der Waals area" units="m2/kmol" value="5.75E+08" />
<HeatOfFormation name="IG heat of formation" units="J/kmol" value="-4.63E+07" />
<GibbsEnergyOfFormation name="IG Gibbs energy of formation" units="J/kmol" value="-4814000" />
<AbsEntropy name="IG absolute entropy" units="J/kmol/K" value="296100" />
<HeatOfFusionAtMeltingPoint name="Heat of fusion at melting point" units="J/kmol" value="4975000" />
<MatthiasCopemanC1 name="Mathias-Copeman C1" units="_" value="0.79757" />
<HeatOfCombustion name="Standard net heat of combustion LHV" units="J/kmol" value="-1.7366E+09" />
<SolidDensity name="Solid density" units="kmol/m3">
  <eqno value="2" />
  <A value="20.608" />
  <B value="-0.018284" />
  <Tmin units="K" value="50.1" />
  <Tmax units="K" value="125.26" />
  </SolidDensity>
<LiquidDensity name="Liquid density" units="kmol/m3">
  <eqno value="105" />
  <A value="1.203" />
  <B value="0.25909" />
  <C value="499.16" />
  <D value="0.26567" />
  <Tmin units="K" value="125.26" />
  <Tmax units="K" value="499.15" />
  </LiquidDensity>
<VaporPressure name="Vapour pressure" units="Pa">
  <eqno value="101" />
  <A value="65.4773" />
  <B value="-5020.82" />
  <C value="-6.678317" />
  <D value="6.449817E-06" />
  <E value="2" />
  <Tmin units="K" value="125.26" />
  <Tmax units="K" value="499.15" />
  </VaporPressure>
<HeatOfVaporization name="Heat of vaporization" units="J/kmol">
  <eqno value="106" />
  <A value="4.1777E+07" />
  <B value="0.6898" />
  <C value="-0.36317" />
  <D value="-0.097723" />
  <E value="0.16958" />
  <Tmin units="K" value="125.26" />
  <Tmax units="K" value="479.47" />
  </HeatOfVaporization>
<SolidHeatCapacityCp name="Solid heat capacity" units="J/kmol/K">
  <eqno value="100" />
  <A value="-14082" />
  <B value="1399.4" />
  <C value="-10.378" />
  <D value="0.036681" />
  <E value="-0.0000060677" />
  <Tmin units="K" value="14" />
  <Tmax units="K" value="125.26" />
  </SolidHeatCapacityCp>
<LiquidHeatCapacityCp name="Liquid heat capacity" units="J/kmol/K">
  <eqno value="16" />
  <A value="112430" />
  <B value="-35384" />
  <C value="348.44" />
  <D value="-1.1065" />
  <E value="0.0012231" />
  <Tmin units="K" value="125.26" />
  <Tmax units="K" value="315.25" />
  </LiquidHeatCapacityCp>
<IdealGasHeatCapacityCp name="Ideal gas heat capacity" units="J/kmol/K">
  <eqno value="16" />
  <A value="39403.72" />
  <B value="-328.0582" />
  <C value="11.29594" />
  <D value="0.000950986" />
  <E value="-3.249647E-07" />
  <Tmin units="K" value="80" />
  <Tmax units="K" value="1500" />
  </IdealGasHeatCapacityCp>
<SecondVirialCoefficient name="Second virial coefficient" units="m3/kmol">
  <eqno value="104" />
  <A value="0.11733" />
  <B value="-135.4" />
  <C value="-13.776" />
  <D value="-593.18" />
  <E value="775.57" />
  <Tmin units="K" value="249.5" />
  <Tmax units="K" value="1996" />
  </SecondVirialCoefficient>
<LiquidViscosity name="Liquid viscosity" units="Pa.s">
  <eqno value="101" />
  <A value="-10.854" />
  <B value="753.55" />
  <C value="0.040849" />
  <D value="-7.5884E-07" />
  <E value="2" />
  <Tmin units="K" value="125.26" />
  <Tmax units="K" value="399" />
  </LiquidViscosity>
<VaporViscosity name="Vapour viscosity" units="Pa.s">
  <eqno value="102" />
  <A value="0.0000001695" />
  <B value="0.75553" />
  <C value="151.56" />
  <D value="-5377.8" />
  <Tmin units="K" value="125.26" />
  <Tmax units="K" value="1000" />
  </VaporViscosity>
<LiquidThermalConductivity name="Liquid thermal conductivity" units="W/m/K">
  <eqno value="16" />
  <A value="-0.021257" />
  <B value="2.7237" />
  <C value="-1.42" />
  <D value="-0.0008779" />
  <E value="-0.0000018277" />
  <Tmin units="K" value="125.26" />
  <Tmax units="K" value="308.15" />
  </LiquidThermalConductivity>
<VaporThermalConductivity name="Vapour thermal conductivity" units="W/m/K">
  <eqno value="102" />
  <A value="0.0014607" />
  <B value="0.7033" />
  <C value="1243.2" />
  <D value="53588" />
  <Tmin units="K" value="125.26" />
  <Tmax units="K" value="1000" />
  </VaporThermalConductivity>
<SurfaceTension name="Surface tension" units="N/m">
  <eqno value="16" />
  <A value="-0.051518" />
  <B value="-2.7266" />
  <C value="-2.1105" />
  <D value="-0.0014355" />
  <E value="-5.6772E-07" />
  <Tmin units="K" value="125.26" />
  <Tmax units="K" value="479.47" />
  </SurfaceTension>
<RPPHeatCapacityCp name="Ideal gas heat capacity (RPP)" units="J/kmol/K">
  <eqno value="100" />
  <A value="32377" />
  <B value="107.68" />
  <C value="0.17061" />
  <D value="-0.0002733" />
  <E value="1.0909E-07" />
  <Tmin units="K" value="50" />
  <Tmax units="K" value="1000" />
  </RPPHeatCapacityCp>
<RelativeStaticPermittivity name="Relative static permittivity" units="_">
  <eqno value="120" />
  <A value="-6.861601" />
  <B value="-4000" />
  <C value="-24" />
  <Tmin units="K" value="274.15" />
  <Tmax units="K" value="444.15" />
  </RelativeStaticPermittivity>
<AntoineVaporPressure name="Antoine" units="Pa">
  <eqno value="10" />
  <A value="21.188" />
  <B value="2662" />
  <C value="-32.622" />
  <Tmin units="K" value="299.82" />
  <Tmax units="K" value="440.11" />
  </AntoineVaporPressure>
<LiquidViscosityRPS name="Liquid viscosity (RPS)" units="Pa.s">
  <eqno value="13" />
  <A value="0.92662" />
  <B value="-0.056615" />
  <C value="0.000088024" />
  <Tmin units="K" value="125.26" />
  <Tmax units="K" value="308.15" />
  </LiquidViscosityRPS>
<COSTALDVolume name="COSTLD characteristic volume (V*)" units="m3/kmol" value="0.20227" />
<DiameterLJ name="Lennard Jones diameter" units="m" value="5.219166E-10" />
<EnergyLJ name="Lennard Jones energy" units="K" value="308.2589" />
<FullerVolume name="Fuller et al. diffusion volume" units="_" value="68.56" />
<MatthiasCopemanC2 name="Mathias-Copeman C2" units="_" value="-0.22578" />
<Parachor name="Parachor" units="kg0.25.m3/s0.5/kmol" value="0.0292" />
<SpecificGravity name="Specific gravity" units="_" value="0.836507" />
<Charge name="Charge" units="_" value="0" />
<CostaldAcentricFactor name="SRK acentric factor" units="_" value="0.19144" />
<WilsonVolume name="Wilson volume" units="m3/kmol" value="0.0746133" />
<UniquacR name="UNIQUAC r" units="_" value="2.551747" />
<UniquacQ name="UNIQUAC q" units="_" value="2.3" />
<ApiSrkS1 name="API-SRK s1" units="_" value="0.763226" />
<ApiSrkS2 name="API-SRK s2" units="_" value="0.003516" />
<MatthiasCopemanC3 name="Mathias-Copeman C3" units="_" value="0.43784" />
<ChaoSeaderAcentricFactor name="Chao-Seader acentric factor" units="_" value="0.192074" />
<ChaoSeaderSolubilityParameter name="Chao-Seader solubility parameter" units="J0.5/m1.5" value="18270.4" />
<ChaoSeaderLiquidVolume name="Chao-Seader liquid volume" units="m3/kmol" value="0.0746133" />
<UnifacVLE name="UNIFAC">
  <group id="1" value="1" />
  <group id="61" value="1" />
  </UnifacVLE>
<Asog name="ASOG">
  <group id="1" value="1" />
  <group id="2" value="1" />
  <group id="55" value="1" />
  </Asog>
<GCmethod name="PPR78">
  <group id="1" value="1" />
  <group id="2" value="1" />
  <group id="15" value="1" />
  </GCmethod>
<CAS name="CAS number" value="75-08-1" />
<Smiles name="SMILES" value="CCS" />
</compound>

