<compound>
<LibraryIndex name="Index" value="1741" />
<CompoundID name="Name" value="ethylenediamine" />
<StructureFormula name="Structure" value="H2NCH2CH2NH2" />
<Family name="Family" value="37" />
<CriticalTemperature name="Critical temperature" units="K" value="592.95" />
<CriticalPressure name="Critical pressure" units="Pa" value="6290000" />
<CriticalVolume name="Critical volume" units="m3/kmol" value="0.206" />
<CriticalCompressibility name="Critical compressibility factor" units="_" value="0.337" />
<NormalBoilingPointTemperature name="Normal boiling point" units="K" value="390.15" />
<NormalMeltingPointTemperature name="Melting point" units="K" value="281.65" />
<TriplePointTemperature name="Triple point temperature" units="K" value="284.29" />
<TriplePointPressure name="Triple point pressure" units="Pa" value="677.511" />
<MolecularWeight name="Molecular weight" units="kg/kmol" value="60.09832" />
<LiquidVolumeAtNormalBoilingPoint name="Liquid molar volume at normal boiling point" units="m3/kmol" value="0.0672757" />
<AcentricityFactor name="Acentric factor" units="_" value="0.472367" />
<RadiusOfGyration name="Radius of gyration" units="m" value="2.7605E-10" />
<SolubilityParameter name="Solubility parameter" units="J0.5/m1.5" value="25200" />
<DipoleMoment name="Dipole moment" units="Coulomb.m" value="6.34E-30" />
<VanDerWaalsVolume name="Van der Waals volume" units="m3/kmol" value="0.04154" />
<VanDerWaalsArea name="Van der Waals area" units="m2/kmol" value="5.54E+08" />
<HeatOfFormation name="IG heat of formation" units="J/kmol" value="-1.78E+07" />
<GibbsEnergyOfFormation name="IG Gibbs energy of formation" units="J/kmol" value="1.032E+08" />
<AbsEntropy name="IG absolute entropy" units="J/kmol/K" value="321833" />
<HeatOfFusionAtMeltingPoint name="Heat of fusion at melting point" units="J/kmol" value="109700" />
<MatthiasCopemanC1 name="Mathias-Copeman C1" units="_" value="1.3873" />
<HeatOfCombustion name="Standard net heat of combustion LHV" units="J/kmol" value="-1.691E+09" />
<SolidDensity name="Solid density" units="kmol/m3">
  <eqno value="2" />
  <A value="19.105" />
  <B value="-0.007483" />
  <C value="0" />
  <D value="0" />
  <E value="0" />
  <Tmin units="K" value="113.72" />
  <Tmax units="K" value="284.29" />
  </SolidDensity>
<LiquidDensity name="Liquid density" units="kmol/m3">
  <eqno value="105" />
  <A value="0.77469" />
  <B value="0.20588" />
  <C value="592.95" />
  <D value="0.20098" />
  <Tmin units="K" value="273.15" />
  <Tmax units="K" value="576.75" />
  </LiquidDensity>
<VaporPressure name="Vapour pressure" units="Pa">
  <eqno value="101" />
  <A value="133.543" />
  <B value="-9787.615" />
  <C value="-16.57909" />
  <D value="0.0000129717" />
  <E value="2" />
  <Tmin units="K" value="262.15" />
  <Tmax units="K" value="593" />
  </VaporPressure>
<HeatOfVaporization name="Heat of vaporization" units="J/kmol">
  <eqno value="106" />
  <A value="7.5708E+07" />
  <B value="1.0826" />
  <C value="-0.65481" />
  <D value="-0.27019" />
  <E value="0.25065" />
  <Tmin units="K" value="284.29" />
  <Tmax units="K" value="576.75" />
  </HeatOfVaporization>
<SolidHeatCapacityCp name="Solid heat capacity" units="J/kmol/K">
  <eqno value="100" />
  <A value="-16264" />
  <B value="987.11" />
  <C value="-4.4926" />
  <D value="0.011566" />
  <E value="-0.0000088487" />
  <Tmin units="K" value="25.91" />
  <Tmax units="K" value="265.65" />
  </SolidHeatCapacityCp>
<LiquidHeatCapacityCp name="Liquid heat capacity" units="J/kmol/K">
  <eqno value="16" />
  <A value="143860" />
  <B value="434.68" />
  <C value="4.2425" />
  <D value="0.021662" />
  <E value="-0.000021123" />
  <Tmin units="K" value="284.29" />
  <Tmax units="K" value="390.41" />
  </LiquidHeatCapacityCp>
<IdealGasHeatCapacityCp name="Ideal gas heat capacity" units="J/kmol/K">
  <eqno value="16" />
  <A value="58340" />
  <B value="-554.75" />
  <C value="12.205" />
  <D value="0.00022368" />
  <E value="-7.8562E-08" />
  <Tmin units="K" value="273" />
  <Tmax units="K" value="1500" />
  </IdealGasHeatCapacityCp>
<SecondVirialCoefficient name="Second virial coefficient" units="m3/kmol">
  <eqno value="104" />
  <A value="0.12638" />
  <B value="-182.9" />
  <C value="-38.105" />
  <D value="-22568" />
  <E value="37297" />
  <Tmin units="K" value="296.5" />
  <Tmax units="K" value="1899.5" />
  </SecondVirialCoefficient>
<LiquidViscosity name="Liquid viscosity" units="Pa.s">
  <eqno value="101" />
  <A value="-9.2076" />
  <B value="2247.2" />
  <C value="-0.93509" />
  <D value="0.0000071501" />
  <E value="2" />
  <Tmin units="K" value="284.29" />
  <Tmax units="K" value="550" />
  </LiquidViscosity>
<VaporViscosity name="Vapour viscosity" units="Pa.s">
  <eqno value="102" />
  <A value="2.0005E-07" />
  <B value="0.70929" />
  <C value="192.67" />
  <D value="-6383.4" />
  <Tmin units="K" value="284.29" />
  <Tmax units="K" value="1000" />
  </VaporViscosity>
<LiquidThermalConductivity name="Liquid thermal conductivity" units="W/m/K">
  <eqno value="16" />
  <A value="0.020715" />
  <B value="-158.25" />
  <C value="0.1953" />
  <D value="-0.004385" />
  <E value="0.0000010035" />
  <Tmin units="K" value="284.29" />
  <Tmax units="K" value="390.41" />
  </LiquidThermalConductivity>
<VaporThermalConductivity name="Vapour thermal conductivity" units="W/m/K">
  <eqno value="102" />
  <A value="0.16528" />
  <B value="0.18013" />
  <C value="3835.1" />
  <D value="1598900" />
  <Tmin units="K" value="284.29" />
  <Tmax units="K" value="1000" />
  </VaporThermalConductivity>
<SurfaceTension name="Surface tension" units="N/m">
  <eqno value="16" />
  <A value="-0.031818" />
  <B value="-71.601" />
  <C value="-1.8001" />
  <D value="-0.00127" />
  <E value="-0.0000022345" />
  <Tmin units="K" value="284.29" />
  <Tmax units="K" value="576.75" />
  </SurfaceTension>
<RPPHeatCapacityCp name="Ideal gas heat capacity (RPP)" units="J/kmol/K">
  <eqno value="4" />
  <A value="13229" />
  <B value="307.67" />
  <C value="-0.16317" />
  <D value="0.000033422" />
  <Tmin units="K" value="273" />
  <Tmax units="K" value="1500" />
  </RPPHeatCapacityCp>
<RelativeStaticPermittivity name="Relative static permittivity" units="_">
  <eqno value="120" />
  <A value="-16.9316" />
  <B value="-8000" />
  <C value="-48" />
  <Tmin units="K" value="271.9278" />
  <Tmax units="K" value="441.9278" />
  </RelativeStaticPermittivity>
<AntoineVaporPressure name="Antoine" units="Pa">
  <eqno value="10" />
  <A value="22.176" />
  <B value="3547.8" />
  <C value="-57.244" />
  <Tmin units="K" value="356.35" />
  <Tmax units="K" value="528.01" />
  </AntoineVaporPressure>
<LiquidViscosityRPS name="Liquid viscosity (RPS)" units="Pa.s">
  <eqno value="12" />
  <A value="-2.9318" />
  <B value="-0.012454" />
  <Tmin units="K" value="284.29" />
  <Tmax units="K" value="483.15" />
  </LiquidViscosityRPS>
<COSTALDVolume name="COSTLD characteristic volume (V*)" units="m3/kmol" value="0.2203" />
<DiameterLJ name="Lennard Jones diameter" units="m" value="4.064853E-10" />
<EnergyLJ name="Lennard Jones energy" units="K" value="771.612" />
<RacketParameter name="Rackett parameter" units="_" value="0.25944" />
<FullerVolume name="Fuller et al. diffusion volume" units="_" value="56.533" />
<MatthiasCopemanC2 name="Mathias-Copeman C2" units="_" value="-1.7134" />
<Parachor name="Parachor" units="kg0.25.m3/s0.5/kmol" value="0.0304359" />
<SpecificGravity name="Specific gravity" units="_" value="1.17431" />
<Charge name="Charge" units="_" value="0" />
<UniquacR name="UNIQUAC r" units="_" value="2.7384" />
<UniquacQ name="UNIQUAC q" units="_" value="2.472" />
<MatthiasCopemanC3 name="Mathias-Copeman C3" units="_" value="3.1081" />
<UnifacVLE name="UNIFAC">
  <group id="30" value="2" />
  </UnifacVLE>
<Asog name="ASOG">
  <group id="2" value="2" />
  <group id="29" value="2" />
  </Asog>
<Umr name="UMR">
  <group id="30" value="2" />
  </Umr>
<ModifiedUnifac name="Modified UNIFAC">
  <group id="29" value="2" />
  </ModifiedUnifac>
<CAS name="CAS number" value="107-15-3" />
<Smiles name="SMILES" value="NCCN" />
</compound>

