<compound>
<LibraryIndex name="Index" value="4487" />
<CompoundID name="Name" value="ethylbenzene hydroperoxide" />
<StructureFormula name="Structure" value="C6H5CH(CH3)OOH" />
<Family name="Family" value="64" />
<CriticalTemperature name="Critical temperature" units="K" value="737" />
<CriticalPressure name="Critical pressure" units="Pa" value="3790000" />
<CriticalVolume name="Critical volume" units="m3/kmol" value="0.407" />
<CriticalCompressibility name="Critical compressibility factor" units="_" value="0.257" />
<NormalBoilingPointTemperature name="Normal boiling point" units="K" value="536" />
<MolecularWeight name="Molecular weight" units="kg/kmol" value="138.164" />
<LiquidVolumeAtNormalBoilingPoint name="Liquid molar volume at normal boiling point" units="m3/kmol" value="0.129016" />
<AcentricityFactor name="Acentric factor" units="_" value="0.812977" />
<RadiusOfGyration name="Radius of gyration" units="m" value="4.488E-10" />
<SolubilityParameter name="Solubility parameter" units="J0.5/m1.5" value="24840" />
<VanDerWaalsVolume name="Van der Waals volume" units="m3/kmol" value="0.07803" />
<VanDerWaalsArea name="Van der Waals area" units="m2/kmol" value="1.008E+09" />
<HeatOfFormation name="IG heat of formation" units="J/kmol" value="-6.709E+07" />
<GibbsEnergyOfFormation name="IG Gibbs energy of formation" units="J/kmol" value="7.209E+07" />
<AbsEntropy name="IG absolute entropy" units="J/kmol/K" value="437000" />
<HeatOfCombustion name="Standard net heat of combustion LHV" units="J/kmol" value="-4.208E+09" />
<SolidDensity name="Solid density" units="kmol/m3">
  <eqno value="100" />
  <A value="9.12" />
  <B value="0" />
  <C value="0" />
  <D value="0" />
  <E value="0" />
  <Tmin units="K" value="0" />
  <Tmax units="K" value="0" />
  </SolidDensity>
<LiquidDensity name="Liquid density" units="kmol/m3">
  <eqno value="105" />
  <A value="0.6185" />
  <B value="0.25728" />
  <C value="737" />
  <D value="0.28571" />
  <Tmin units="K" value="290" />
  <Tmax units="K" value="737" />
  </LiquidDensity>
<VaporPressure name="Vapour pressure" units="Pa">
  <eqno value="101" />
  <A value="108.52" />
  <B value="-13407" />
  <C value="-11.467" />
  <D value="3.3321E-18" />
  <E value="6" />
  <Tmin units="K" value="290" />
  <Tmax units="K" value="737" />
  </VaporPressure>
<HeatOfVaporization name="Heat of vaporization" units="J/kmol">
  <eqno value="106" />
  <A value="1.006E+08" />
  <B value="0.3928" />
  <C value="0" />
  <D value="0" />
  <E value="0" />
  <Tmin units="K" value="290" />
  <Tmax units="K" value="737" />
  </HeatOfVaporization>
<LiquidHeatCapacityCp name="Liquid heat capacity" units="J/kmol/K">
  <eqno value="100" />
  <A value="54602" />
  <B value="594.52" />
  <C value="0" />
  <D value="0" />
  <E value="0" />
  <Tmin units="K" value="368.5" />
  <Tmax units="K" value="552.75" />
  </LiquidHeatCapacityCp>
<IdealGasHeatCapacityCp name="Ideal gas heat capacity" units="J/kmol/K">
  <eqno value="16" />
  <A value="78573.18" />
  <B value="-500" />
  <C value="13.01407" />
  <D value="0" />
  <E value="0" />
  <Tmin units="K" value="255" />
  <Tmax units="K" value="1500" />
  </IdealGasHeatCapacityCp>
<SecondVirialCoefficient name="Second virial coefficient" units="m3/kmol">
  <eqno value="104" />
  <A value="0.27888" />
  <B value="-275.68" />
  <C value="-1.9517E+08" />
  <D value="-1.851E+21" />
  <E value="2.3474E+23" />
  <Tmin units="K" value="368.5" />
  <Tmax units="K" value="1500" />
  </SecondVirialCoefficient>
<VaporViscosity name="Vapour viscosity" units="Pa.s">
  <eqno value="102" />
  <A value="6.8469E-08" />
  <B value="0.83562" />
  <C value="81.391" />
  <D value="0" />
  <Tmin units="K" value="290" />
  <Tmax units="K" value="1000" />
  </VaporViscosity>
<LiquidThermalConductivity name="Liquid thermal conductivity" units="W/m/K">
  <eqno value="100" />
  <A value="0.20801" />
  <B value="-0.00020455" />
  <C value="0" />
  <D value="0" />
  <E value="0" />
  <Tmin units="K" value="290" />
  <Tmax units="K" value="536" />
  </LiquidThermalConductivity>
<VaporThermalConductivity name="Vapour thermal conductivity" units="W/m/K">
  <eqno value="102" />
  <A value="0.00020597" />
  <B value="0.90879" />
  <C value="753.49" />
  <D value="0" />
  <Tmin units="K" value="536" />
  <Tmax units="K" value="1000" />
  </VaporThermalConductivity>
<SurfaceTension name="Surface tension" units="N/m">
  <eqno value="106" />
  <A value="0.068706" />
  <B value="1.2148" />
  <C value="0" />
  <D value="0" />
  <E value="0" />
  <Tmin units="K" value="290" />
  <Tmax units="K" value="737" />
  </SurfaceTension>
<AntoineVaporPressure name="Antoine" units="Pa">
  <eqno value="10" />
  <A value="24.39239" />
  <B value="6304.485" />
  <C value="-49.7129" />
  <Tmin units="K" value="428.8" />
  <Tmax units="K" value="737" />
  </AntoineVaporPressure>
<Charge name="Charge" units="_" value="0" />
<CostaldAcentricFactor name="SRK acentric factor" units="_" value="0.812977" />
<WilsonVolume name="Wilson volume" units="m3/kmol" value="0.129016" />
<ChaoSeaderAcentricFactor name="Chao-Seader acentric factor" units="_" value="0.812977" />
<ChaoSeaderSolubilityParameter name="Chao-Seader solubility parameter" units="J0.5/m1.5" value="24840" />
<ChaoSeaderLiquidVolume name="Chao-Seader liquid volume" units="m3/kmol" value="0.129016" />
<UnifacVLE name="UNIFAC">
  <group id="1" value="1" />
  <group id="10" value="5" />
  <group id="11" value="1" />
  <group id="132" value="1" />
  </UnifacVLE>
<UnifacLLE name="UNIFAC-LLE">
  <group id="1" value="1" />
  <group id="9" value="5" />
  <group id="10" value="1" />
  </UnifacLLE>
<Asog name="ASOG">
  <group id="1" value="1" />
  <group id="10" value="5" />
  <group id="11" value="1" />
  </Asog>
<GCmethod name="PPR78">
  <group id="1" value="1" />
  <group id="7" value="5" />
  <group id="8" value="1" />
  </GCmethod>
<Umr name="UMR">
  <group id="1" value="1" />
  <group id="10" value="5" />
  <group id="11" value="1" />
  </Umr>
<ModifiedUnifac name="Modified UNIFAC">
  <group id="1" value="1" />
  <group id="9" value="5" />
  <group id="10" value="1" />
  </ModifiedUnifac>
<CAS name="CAS number" value="3071-32-7" />
<Smiles name="SMILES" value="CC(c1ccccc1)OO" />
</compound>

