<compound>
<LibraryIndex name="Index" value="3814" />
<CompoundID name="Name" value="ethyl propyl disulfide" />
<StructureFormula name="Structure" value="CH3(CH2)2SSCH2CH3" />
<Family name="Family" value="42" />
<CriticalTemperature name="Critical temperature" units="K" value="660" />
<CriticalPressure name="Critical pressure" units="Pa" value="3612000" />
<CriticalVolume name="Critical volume" units="m3/kmol" value="0.417" />
<CriticalCompressibility name="Critical compressibility factor" units="_" value="0.274" />
<NormalBoilingPointTemperature name="Normal boiling point" units="K" value="446.85" />
<NormalMeltingPointTemperature name="Melting point" units="K" value="165" />
<TriplePointTemperature name="Triple point temperature" units="K" value="165" />
<TriplePointPressure name="Triple point pressure" units="Pa" value="0.00002" />
<MolecularWeight name="Molecular weight" units="kg/kmol" value="136.2788" />
<LiquidVolumeAtNormalBoilingPoint name="Liquid molar volume at normal boiling point" units="m3/kmol" value="0.1405" />
<AcentricityFactor name="Acentric factor" units="_" value="0.391" />
<RadiusOfGyration name="Radius of gyration" units="m" value="4.304E-10" />
<SolubilityParameter name="Solubility parameter" units="J0.5/m1.5" value="17840" />
<DipoleMoment name="Dipole moment" units="Coulomb.m" value="7.69E-30" />
<VanDerWaalsVolume name="Van der Waals volume" units="m3/kmol" value="0.0824" />
<VanDerWaalsArea name="Van der Waals area" units="m2/kmol" value="1.105E+09" />
<HeatOfFormation name="IG heat of formation" units="J/kmol" value="-9.625E+07" />
<GibbsEnergyOfFormation name="IG Gibbs energy of formation" units="J/kmol" value="2.796E+07" />
<AbsEntropy name="IG absolute entropy" units="J/kmol/K" value="460300" />
<HeatOfFusionAtMeltingPoint name="Heat of fusion at melting point" units="J/kmol" value="1.08E+07" />
<HeatOfCombustion name="Standard net heat of combustion LHV" units="J/kmol" value="-3.866E+09" />
<SolidDensity name="Solid density" units="kmol/m3">
  <eqno value="100" />
  <A value="10.091" />
  <B value="-0.0076445" />
  <C value="0" />
  <D value="0" />
  <E value="0" />
  <Tmin units="K" value="66" />
  <Tmax units="K" value="165" />
  </SolidDensity>
<LiquidDensity name="Liquid density" units="kmol/m3">
  <eqno value="105" />
  <A value="0.65822" />
  <B value="0.27459" />
  <C value="660" />
  <D value="0.28571" />
  <Tmin units="K" value="165" />
  <Tmax units="K" value="660" />
  </LiquidDensity>
<VaporPressure name="Vapour pressure" units="Pa">
  <eqno value="101" />
  <A value="110.6" />
  <B value="-9574.8" />
  <C value="-12.96" />
  <D value="0.0000072115" />
  <E value="2" />
  <Tmin units="K" value="165" />
  <Tmax units="K" value="660" />
  </VaporPressure>
<HeatOfVaporization name="Heat of vaporization" units="J/kmol">
  <eqno value="106" />
  <A value="5.9782E+07" />
  <B value="0.63427" />
  <C value="-0.74757" />
  <D value="0.47275" />
  <E value="0" />
  <Tmin units="K" value="165" />
  <Tmax units="K" value="660" />
  </HeatOfVaporization>
<SolidHeatCapacityCp name="Solid heat capacity" units="J/kmol/K">
  <eqno value="100" />
  <A value="5554.7" />
  <B value="1005.5" />
  <C value="-1.3152" />
  <D value="0.0022282" />
  <E value="0" />
  <Tmin units="K" value="50" />
  <Tmax units="K" value="165" />
  </SolidHeatCapacityCp>
<LiquidHeatCapacityCp name="Liquid heat capacity" units="J/kmol/K">
  <eqno value="100" />
  <A value="223630" />
  <B value="-139.83" />
  <C value="0.57232" />
  <D value="0" />
  <E value="0" />
  <Tmin units="K" value="165" />
  <Tmax units="K" value="446.85" />
  </LiquidHeatCapacityCp>
<IdealGasHeatCapacityCp name="Ideal gas heat capacity" units="J/kmol/K">
  <eqno value="16" />
  <A value="105720" />
  <B value="-573.79" />
  <C value="12.857" />
  <D value="0.000058344" />
  <E value="8.0803E-09" />
  <Tmin units="K" value="273" />
  <Tmax units="K" value="1500" />
  </IdealGasHeatCapacityCp>
<SecondVirialCoefficient name="Second virial coefficient" units="m3/kmol">
  <eqno value="104" />
  <A value="0.24848" />
  <B value="-451.31" />
  <C value="-81.656" />
  <D value="-23479" />
  <E value="37883" />
  <Tmin units="K" value="330" />
  <Tmax units="K" value="1500" />
  </SecondVirialCoefficient>
<LiquidViscosity name="Liquid viscosity" units="Pa.s">
  <eqno value="101" />
  <A value="-37.87" />
  <B value="2334.8" />
  <C value="4.1564" />
  <D value="-0.0000036099" />
  <E value="2" />
  <Tmin units="K" value="165" />
  <Tmax units="K" value="560" />
  </LiquidViscosity>
<VaporViscosity name="Vapour viscosity" units="Pa.s">
  <eqno value="102" />
  <A value="6.9027E-08" />
  <B value="0.8462" />
  <C value="109.98" />
  <D value="-9618.4" />
  <Tmin units="K" value="165" />
  <Tmax units="K" value="1000" />
  </VaporViscosity>
<LiquidThermalConductivity name="Liquid thermal conductivity" units="W/m/K">
  <eqno value="16" />
  <A value="-0.20064" />
  <B value="12.059" />
  <C value="-1.0757" />
  <D value="0.00011826" />
  <E value="-0.000000977" />
  <Tmin units="K" value="198" />
  <Tmax units="K" value="528" />
  </LiquidThermalConductivity>
<VaporThermalConductivity name="Vapour thermal conductivity" units="W/m/K">
  <eqno value="102" />
  <A value="0.00000124" />
  <B value="1.5526" />
  <C value="-137.7" />
  <D value="30422" />
  <Tmin units="K" value="446.85" />
  <Tmax units="K" value="1000" />
  </VaporThermalConductivity>
<SurfaceTension name="Surface tension" units="N/m">
  <eqno value="16" />
  <A value="-0.016218" />
  <B value="22.019" />
  <C value="-2.7492" />
  <D value="-0.00041928" />
  <E value="-0.0000026424" />
  <Tmin units="K" value="165" />
  <Tmax units="K" value="660" />
  </SurfaceTension>
<RPPHeatCapacityCp name="Ideal gas heat capacity (RPP)" units="J/kmol/K">
  <eqno value="4" />
  <A value="24558" />
  <B value="549.61" />
  <C value="-0.30995" />
  <D value="0.000072708" />
  <Tmin units="K" value="273" />
  <Tmax units="K" value="1500" />
  </RPPHeatCapacityCp>
<AntoineVaporPressure name="Antoine" units="Pa">
  <eqno value="10" />
  <A value="21.677" />
  <B value="4069.1" />
  <C value="-45.972" />
  <Tmin units="K" value="399.47" />
  <Tmax units="K" value="581.84" />
  </AntoineVaporPressure>
<LiquidViscosityRPS name="Liquid viscosity (RPS)" units="Pa.s">
  <eqno value="12" />
  <A value="-1.8977" />
  <B value="-0.013855" />
  <Tmin units="K" value="165" />
  <Tmax units="K" value="528" />
  </LiquidViscosityRPS>
<COSTALDVolume name="COSTLD characteristic volume (V*)" units="m3/kmol" value="0.449017" />
<DiameterLJ name="Lennard Jones diameter" units="m" value="6.591582E-10" />
<EnergyLJ name="Lennard Jones energy" units="K" value="407.7173" />
<RacketParameter name="Rackett parameter" units="_" value="0.274" />
<FullerVolume name="Fuller et al. diffusion volume" units="_" value="133.984" />
<Parachor name="Parachor" units="kg0.25.m3/s0.5/kmol" value="0.0590577" />
<SpecificGravity name="Specific gravity" units="_" value="0.948" />
<Charge name="Charge" units="_" value="0" />
<CostaldAcentricFactor name="SRK acentric factor" units="_" value="0.391" />
<WilsonVolume name="Wilson volume" units="m3/kmol" value="0.1405" />
<UniquacR name="UNIQUAC r" units="_" value="5.2492" />
<UniquacQ name="UNIQUAC q" units="_" value="4.356" />
<ChaoSeaderAcentricFactor name="Chao-Seader acentric factor" units="_" value="0.391" />
<ChaoSeaderSolubilityParameter name="Chao-Seader solubility parameter" units="J0.5/m1.5" value="17840" />
<ChaoSeaderLiquidVolume name="Chao-Seader liquid volume" units="m3/kmol" value="0.1405" />
<UnifacVLE name="UNIFAC">
  <group id="1" value="2" />
  <group id="2" value="1" />
  <group id="103" value="2" />
  </UnifacVLE>
<Umr name="UMR">
  <group id="1" value="2" />
  <group id="2" value="1" />
  <group id="103" value="2" />
  </Umr>
<ModifiedUnifac name="Modified UNIFAC">
  <group id="1" value="2" />
  <group id="2" value="3" />
  <group id="201" value="1" />
  </ModifiedUnifac>
<CAS name="CAS number" value="30453-31-7" />
<Smiles name="SMILES" value="CCCSSCC" />
</compound>

