<compound>
<LibraryIndex name="Index" value="3813" />
<CompoundID name="Name" value="ethyl methyl disulfide" />
<StructureFormula name="Structure" value="CH3CH2SSCH3" />
<Family name="Family" value="42" />
<CriticalTemperature name="Critical temperature" units="K" value="628.9" />
<CriticalPressure name="Critical pressure" units="Pa" value="4615000" />
<CriticalVolume name="Critical volume" units="m3/kmol" value="0.312" />
<CriticalCompressibility name="Critical compressibility factor" units="_" value="0.275" />
<NormalBoilingPointTemperature name="Normal boiling point" units="K" value="407.15" />
<NormalMeltingPointTemperature name="Melting point" units="K" value="183.22" />
<TriplePointTemperature name="Triple point temperature" units="K" value="183.22" />
<TriplePointPressure name="Triple point pressure" units="Pa" value="0.0416" />
<MolecularWeight name="Molecular weight" units="kg/kmol" value="108.2256" />
<LiquidVolumeAtNormalBoilingPoint name="Liquid molar volume at normal boiling point" units="m3/kmol" value="0.1066" />
<AcentricityFactor name="Acentric factor" units="_" value="0.301" />
<RadiusOfGyration name="Radius of gyration" units="m" value="3.411E-10" />
<SolubilityParameter name="Solubility parameter" units="J0.5/m1.5" value="18730" />
<DipoleMoment name="Dipole moment" units="Coulomb.m" value="8.25E-30" />
<VanDerWaalsVolume name="Van der Waals volume" units="m3/kmol" value="0.061" />
<VanDerWaalsArea name="Van der Waals area" units="m2/kmol" value="8.365E+08" />
<HeatOfFormation name="IG heat of formation" units="J/kmol" value="-4.94E+07" />
<GibbsEnergyOfFormation name="IG Gibbs energy of formation" units="J/kmol" value="1.709E+07" />
<AbsEntropy name="IG absolute entropy" units="J/kmol/K" value="381100" />
<HeatOfFusionAtMeltingPoint name="Heat of fusion at melting point" units="J/kmol" value="9210000" />
<HeatOfCombustion name="Standard net heat of combustion LHV" units="J/kmol" value="-2.65E+09" />
<SolidDensity name="Solid density" units="kmol/m3">
  <eqno value="100" />
  <A value="13.215" />
  <B value="-0.0090158" />
  <C value="0" />
  <D value="0" />
  <E value="0" />
  <Tmin units="K" value="73.29" />
  <Tmax units="K" value="183.22" />
  </SolidDensity>
<LiquidDensity name="Liquid density" units="kmol/m3">
  <eqno value="105" />
  <A value="0.88258" />
  <B value="0.27523" />
  <C value="628.9" />
  <D value="0.28571" />
  <Tmin units="K" value="183.22" />
  <Tmax units="K" value="605.44" />
  </LiquidDensity>
<VaporPressure name="Vapour pressure" units="Pa">
  <eqno value="101" />
  <A value="96.027" />
  <B value="-8038.4" />
  <C value="-10.972" />
  <D value="0.0000070895" />
  <E value="2" />
  <Tmin units="K" value="183.22" />
  <Tmax units="K" value="628.9" />
  </VaporPressure>
<HeatOfVaporization name="Heat of vaporization" units="J/kmol">
  <eqno value="106" />
  <A value="4.8216E+07" />
  <B value="0.48633" />
  <C value="-0.6279" />
  <D value="0.476" />
  <E value="0" />
  <Tmin units="K" value="183.22" />
  <Tmax units="K" value="628.9" />
  </HeatOfVaporization>
<SolidHeatCapacityCp name="Solid heat capacity" units="J/kmol/K">
  <eqno value="102" />
  <A value="2639" />
  <B value="0.73245" />
  <C value="0" />
  <D value="0" />
  <Tmin units="K" value="50" />
  <Tmax units="K" value="183.22" />
  </SolidHeatCapacityCp>
<LiquidHeatCapacityCp name="Liquid heat capacity" units="J/kmol/K">
  <eqno value="100" />
  <A value="187520" />
  <B value="-208.62" />
  <C value="0.55295" />
  <D value="0" />
  <E value="0" />
  <Tmin units="K" value="183.22" />
  <Tmax units="K" value="628.22" />
  </LiquidHeatCapacityCp>
<IdealGasHeatCapacityCp name="Ideal gas heat capacity" units="J/kmol/K">
  <eqno value="16" />
  <A value="84149" />
  <B value="-628.71" />
  <C value="12.564" />
  <D value="-0.0001652" />
  <E value="8.9754E-08" />
  <Tmin units="K" value="273" />
  <Tmax units="K" value="1500" />
  </IdealGasHeatCapacityCp>
<SecondVirialCoefficient name="Second virial coefficient" units="m3/kmol">
  <eqno value="104" />
  <A value="0.18531" />
  <B value="-341.47" />
  <C value="-46.957" />
  <D value="-9218.3" />
  <E value="14306" />
  <Tmin units="K" value="314.45" />
  <Tmax units="K" value="1500" />
  </SecondVirialCoefficient>
<LiquidViscosity name="Liquid viscosity" units="Pa.s">
  <eqno value="101" />
  <A value="-74.45287" />
  <B value="3204.964" />
  <C value="10.10529" />
  <D value="-0.0000144504" />
  <E value="2" />
  <Tmin units="K" value="183.22" />
  <Tmax units="K" value="529" />
  </LiquidViscosity>
<VaporViscosity name="Vapour viscosity" units="Pa.s">
  <eqno value="102" />
  <A value="7.0201E-08" />
  <B value="0.85571" />
  <C value="90.077" />
  <D value="-7385.7" />
  <Tmin units="K" value="183.22" />
  <Tmax units="K" value="1000" />
  </VaporViscosity>
<LiquidThermalConductivity name="Liquid thermal conductivity" units="W/m/K">
  <eqno value="16" />
  <A value="-0.21083" />
  <B value="11.426" />
  <C value="-1.0307" />
  <D value="0.00012249" />
  <E value="-0.0000010671" />
  <Tmin units="K" value="188.67" />
  <Tmax units="K" value="503.12" />
  </LiquidThermalConductivity>
<VaporThermalConductivity name="Vapour thermal conductivity" units="W/m/K">
  <eqno value="102" />
  <A value="0.00027958" />
  <B value="0.86411" />
  <C value="843.3" />
  <D value="7471.1" />
  <Tmin units="K" value="183.22" />
  <Tmax units="K" value="1000" />
  </VaporThermalConductivity>
<SurfaceTension name="Surface tension" units="N/m">
  <eqno value="16" />
  <A value="-0.019623" />
  <B value="24.049" />
  <C value="-2.6806" />
  <D value="-0.0004209" />
  <E value="-0.0000026778" />
  <Tmin units="K" value="183.22" />
  <Tmax units="K" value="605.44" />
  </SurfaceTension>
<RPPHeatCapacityCp name="Ideal gas heat capacity (RPP)" units="J/kmol/K">
  <eqno value="4" />
  <A value="28202" />
  <B value="358.57" />
  <C value="-0.21427" />
  <D value="0.00005341" />
  <Tmin units="K" value="273" />
  <Tmax units="K" value="1500" />
  </RPPHeatCapacityCp>
<AntoineVaporPressure name="Antoine" units="Pa">
  <eqno value="10" />
  <A value="21.749" />
  <B value="3877.4" />
  <C value="-27.865" />
  <Tmin units="K" value="394.33" />
  <Tmax units="K" value="558.53" />
  </AntoineVaporPressure>
<LiquidViscosityRPS name="Liquid viscosity (RPS)" units="Pa.s">
  <eqno value="12" />
  <A value="-4.1439" />
  <B value="-0.0099736" />
  <Tmin units="K" value="183.22" />
  <Tmax units="K" value="503.12" />
  </LiquidViscosityRPS>
<COSTALDVolume name="COSTLD characteristic volume (V*)" units="m3/kmol" value="0.326201" />
<DiameterLJ name="Lennard Jones diameter" units="m" value="5.957956E-10" />
<EnergyLJ name="Lennard Jones energy" units="K" value="393.6339" />
<RacketParameter name="Rackett parameter" units="_" value="0.275" />
<FullerVolume name="Fuller et al. diffusion volume" units="_" value="95.451" />
<Parachor name="Parachor" units="kg0.25.m3/s0.5/kmol" value="0.0449723" />
<SpecificGravity name="Specific gravity" units="_" value="1.02" />
<Charge name="Charge" units="_" value="0" />
<CostaldAcentricFactor name="SRK acentric factor" units="_" value="0.301" />
<WilsonVolume name="Wilson volume" units="m3/kmol" value="0.1066" />
<UniquacR name="UNIQUAC r" units="_" value="3.9004" />
<UniquacQ name="UNIQUAC q" units="_" value="3.276" />
<ChaoSeaderAcentricFactor name="Chao-Seader acentric factor" units="_" value="0.301" />
<ChaoSeaderSolubilityParameter name="Chao-Seader solubility parameter" units="J0.5/m1.5" value="18730" />
<ChaoSeaderLiquidVolume name="Chao-Seader liquid volume" units="m3/kmol" value="0.1066" />
<UnifacVLE name="UNIFAC">
  <group id="1" value="1" />
  <group id="102" value="1" />
  <group id="103" value="1" />
  </UnifacVLE>
<Umr name="UMR">
  <group id="1" value="1" />
  <group id="102" value="1" />
  <group id="103" value="1" />
  </Umr>
<ModifiedUnifac name="Modified UNIFAC">
  <group id="1" value="2" />
  <group id="2" value="1" />
  <group id="201" value="1" />
  </ModifiedUnifac>
<CAS name="CAS number" value="20333-39-5" />
<Smiles name="SMILES" value="CCSSC" />
</compound>

