<compound>
<LibraryIndex name="Index" value="504" />
<CompoundID name="Name" value="ethylbenzene" />
<StructureFormula name="Structure" value="(C6H5)CH2CH3" />
<Family name="Family" value="16" />
<CriticalTemperature name="Critical temperature" units="K" value="617.15" />
<CriticalPressure name="Critical pressure" units="Pa" value="3609000" />
<CriticalVolume name="Critical volume" units="m3/kmol" value="0.374" />
<CriticalCompressibility name="Critical compressibility factor" units="_" value="0.263" />
<NormalBoilingPointTemperature name="Normal boiling point" units="K" value="409.36" />
<NormalMeltingPointTemperature name="Melting point" units="K" value="178.2" />
<TriplePointTemperature name="Triple point temperature" units="K" value="178.2" />
<TriplePointPressure name="Triple point pressure" units="Pa" value="0.00390778" />
<MolecularWeight name="Molecular weight" units="kg/kmol" value="106.165" />
<LiquidVolumeAtNormalBoilingPoint name="Liquid molar volume at normal boiling point" units="m3/kmol" value="0.12308" />
<AcentricityFactor name="Acentric factor" units="_" value="0.304" />
<RadiusOfGyration name="Radius of gyration" units="m" value="3.897E-10" />
<SolubilityParameter name="Solubility parameter" units="J0.5/m1.5" value="17980" />
<DipoleMoment name="Dipole moment" units="Coulomb.m" value="2.0E-30" />
<VanDerWaalsVolume name="Van der Waals volume" units="m3/kmol" value="0.06974" />
<VanDerWaalsArea name="Van der Waals area" units="m2/kmol" value="8.8E+08" />
<HeatOfFormation name="IG heat of formation" units="J/kmol" value="2.992E+07" />
<GibbsEnergyOfFormation name="IG Gibbs energy of formation" units="J/kmol" value="1.3073E+08" />
<AbsEntropy name="IG absolute entropy" units="J/kmol/K" value="360630" />
<HeatOfFusionAtMeltingPoint name="Heat of fusion at melting point" units="J/kmol" value="9180300" />
<MatthiasCopemanC1 name="Mathias-Copeman C1" units="_" value="1.0026" />
<HeatOfCombustion name="Standard net heat of combustion LHV" units="J/kmol" value="-4.3448E+09" />
<SolidDensity name="Solid density" units="kmol/m3">
  <eqno value="2" />
  <A value="11.465" />
  <B value="-0.007103" />
  <Tmin units="K" value="71.28" />
  <Tmax units="K" value="178.2" />
  </SolidDensity>
<LiquidDensity name="Liquid density" units="kmol/m3">
  <eqno value="105" />
  <A value="0.66155" />
  <B value="0.25394" />
  <C value="617.21" />
  <D value="0.27883" />
  <Tmin units="K" value="163.1" />
  <Tmax units="K" value="617.2" />
  </LiquidDensity>
<VaporPressure name="Vapour pressure" units="Pa">
  <eqno value="101" />
  <A value="137.5088" />
  <B value="-9745.069" />
  <C value="-17.34457" />
  <D value="0.0000127987" />
  <E value="2" />
  <Tmin units="K" value="178.2" />
  <Tmax units="K" value="617.2" />
  </VaporPressure>
<HeatOfVaporization name="Heat of vaporization" units="J/kmol">
  <eqno value="106" />
  <A value="5.990732E+07" />
  <B value="0.380483" />
  <C value="1.094304" />
  <D value="-2.185536" />
  <E value="1.1369" />
  <Tmin units="K" value="178.15" />
  <Tmax units="K" value="594.05" />
  </HeatOfVaporization>
<SolidHeatCapacityCp name="Solid heat capacity" units="J/kmol/K">
  <eqno value="100" />
  <A value="-8883.6" />
  <B value="1417.5" />
  <C value="-10.145" />
  <D value="0.048416" />
  <E value="-0.000088579" />
  <Tmin units="K" value="40" />
  <Tmax units="K" value="178.2" />
  </SolidHeatCapacityCp>
<LiquidHeatCapacityCp name="Liquid heat capacity" units="J/kmol/K">
  <eqno value="16" />
  <A value="131820" />
  <B value="-90.983" />
  <C value="10.031" />
  <D value="0.0026504" />
  <E value="0.0000033965" />
  <Tmin units="K" value="178.17" />
  <Tmax units="K" value="409.35" />
  </LiquidHeatCapacityCp>
<IdealGasHeatCapacityCp name="Ideal gas heat capacity" units="J/kmol/K">
  <eqno value="16" />
  <A value="65434" />
  <B value="-619.34" />
  <C value="13.166" />
  <D value="-0.00016412" />
  <E value="4.1529E-08" />
  <Tmin units="K" value="200" />
  <Tmax units="K" value="1500" />
  </IdealGasHeatCapacityCp>
<SecondVirialCoefficient name="Second virial coefficient" units="m3/kmol">
  <eqno value="104" />
  <A value="0.23456" />
  <B value="-304.77" />
  <C value="-54.496" />
  <D value="-5921.9" />
  <E value="-7767.5" />
  <Tmin units="K" value="307" />
  <Tmax units="K" value="1967" />
  </SecondVirialCoefficient>
<LiquidViscosity name="Liquid viscosity" units="Pa.s">
  <eqno value="101" />
  <A value="-14.506" />
  <B value="1237.2" />
  <C value="0.52859" />
  <D value="-9.1363E-08" />
  <E value="2" />
  <Tmin units="K" value="178.2" />
  <Tmax units="K" value="617.15" />
  </LiquidViscosity>
<VaporViscosity name="Vapour viscosity" units="Pa.s">
  <eqno value="102" />
  <A value="0.0000016833" />
  <B value="0.39831" />
  <C value="366.45" />
  <D value="23750" />
  <Tmin units="K" value="178.15" />
  <Tmax units="K" value="1000" />
  </VaporViscosity>
<LiquidThermalConductivity name="Liquid thermal conductivity" units="W/m/K">
  <eqno value="16" />
  <A value="-0.026087" />
  <B value="13.301" />
  <C value="-1.6623" />
  <D value="-0.00027844" />
  <E value="-0.0000018214" />
  <Tmin units="K" value="178.2" />
  <Tmax units="K" value="413.1" />
  </LiquidThermalConductivity>
<VaporThermalConductivity name="Vapour thermal conductivity" units="W/m/K">
  <eqno value="102" />
  <A value="0.000015932" />
  <B value="1.3226" />
  <C value="486.47" />
  <D value="14367" />
  <Tmin units="K" value="178.2" />
  <Tmax units="K" value="1000" />
  </VaporThermalConductivity>
<SurfaceTension name="Surface tension" units="N/m">
  <eqno value="16" />
  <A value="-0.012337" />
  <B value="28.706" />
  <C value="-2.9284" />
  <D value="-0.0000060499" />
  <E value="-0.0000040717" />
  <Tmin units="K" value="178.2" />
  <Tmax units="K" value="594.05" />
  </SurfaceTension>
<RPPHeatCapacityCp name="Ideal gas heat capacity (RPP)" units="J/kmol/K">
  <eqno value="100" />
  <A value="37781" />
  <B value="87.95" />
  <C value="1.1344" />
  <D value="-0.0016027" />
  <E value="0.0000006556" />
  <Tmin units="K" value="50" />
  <Tmax units="K" value="1000" />
  </RPPHeatCapacityCp>
<RelativeStaticPermittivity name="Relative static permittivity" units="_">
  <eqno value="120" />
  <A value="-2.197605" />
  <B value="-1500" />
  <C value="-9" />
  <Tmin units="K" value="278.5945" />
  <Tmax units="K" value="448.5945" />
  </RelativeStaticPermittivity>
<AntoineVaporPressure name="Antoine" units="Pa">
  <eqno value="10" />
  <A value="21.113" />
  <B value="3424.2" />
  <C value="-52.199" />
  <Tmin units="K" value="370.3" />
  <Tmax units="K" value="554.84" />
  </AntoineVaporPressure>
<LiquidViscosityRPS name="Liquid viscosity (RPS)" units="Pa.s">
  <eqno value="13" />
  <A value="1.0993" />
  <B value="-0.043006" />
  <C value="0.000049165" />
  <Tmin units="K" value="178.2" />
  <Tmax units="K" value="413.1" />
  </LiquidViscosityRPS>
<COSTALDVolume name="COSTLD characteristic volume (V*)" units="m3/kmol" value="0.3702" />
<DiameterLJ name="Lennard Jones diameter" units="m" value="6.677111E-10" />
<EnergyLJ name="Lennard Jones energy" units="K" value="328.9612" />
<FullerVolume name="Fuller et al. diffusion volume" units="_" value="132" />
<MatthiasCopemanC2 name="Mathias-Copeman C2" units="_" value="-0.58093" />
<Parachor name="Parachor" units="kg0.25.m3/s0.5/kmol" value="0.0504" />
<SpecificGravity name="Specific gravity" units="_" value="0.870033" />
<Charge name="Charge" units="_" value="0" />
<CostaldAcentricFactor name="SRK acentric factor" units="_" value="0.3048" />
<WilsonVolume name="Wilson volume" units="m3/kmol" value="0.122763" />
<UniquacR name="UNIQUAC r" units="_" value="4.6" />
<UniquacQ name="UNIQUAC q" units="_" value="3.51" />
<UniquacQP name="UNIQUAC q'" units="_" value="3.51" />
<ApiSrkS2 name="API-SRK s2" units="_" value="-0.004227" />
<MatthiasCopemanC3 name="Mathias-Copeman C3" units="_" value="1.2097" />
<ChaoSeaderAcentricFactor name="Chao-Seader acentric factor" units="_" value="0.2936" />
<ChaoSeaderSolubilityParameter name="Chao-Seader solubility parameter" units="J0.5/m1.5" value="17979.95" />
<ChaoSeaderLiquidVolume name="Chao-Seader liquid volume" units="m3/kmol" value="0.1231" />
<UnifacVLE name="UNIFAC">
  <group id="1" value="1" />
  <group id="10" value="5" />
  <group id="13" value="1" />
  </UnifacVLE>
<UnifacLLE name="UNIFAC-LLE">
  <group id="1" value="1" />
  <group id="9" value="5" />
  <group id="12" value="1" />
  </UnifacLLE>
<Asog name="ASOG">
  <group id="1" value="1" />
  <group id="2" value="1" />
  <group id="10" value="5" />
  <group id="11" value="1" />
  </Asog>
<GCmethod name="PPR78">
  <group id="1" value="1" />
  <group id="2" value="1" />
  <group id="7" value="5" />
  <group id="8" value="1" />
  </GCmethod>
<Umr name="UMR">
  <group id="1" value="1" />
  <group id="10" value="5" />
  <group id="13" value="1" />
  </Umr>
<ModifiedUnifac name="Modified UNIFAC">
  <group id="1" value="1" />
  <group id="9" value="5" />
  <group id="12" value="1" />
  </ModifiedUnifac>
<CAS name="CAS number" value="100-41-4" />
<Smiles name="SMILES" value="c1ccccc1(CC)" />
</compound>

