<compound>
<LibraryIndex name="Index" value="738" />
<CompoundID name="Name" value="fluorene" />
<StructureFormula name="Structure" value="(C6H4)CH2(C6H4)" />
<Family name="Family" value="20" />
<CriticalTemperature name="Critical temperature" units="K" value="826" />
<CriticalPressure name="Critical pressure" units="Pa" value="3000000" />
<CriticalVolume name="Critical volume" units="m3/kmol" value="0.524" />
<CriticalCompressibility name="Critical compressibility factor" units="_" value="0.229" />
<NormalBoilingPointTemperature name="Normal boiling point" units="K" value="570.44" />
<NormalMeltingPointTemperature name="Melting point" units="K" value="387.94" />
<TriplePointTemperature name="Triple point temperature" units="K" value="387.94" />
<TriplePointPressure name="Triple point pressure" units="Pa" value="281.665" />
<MolecularWeight name="Molecular weight" units="kg/kmol" value="166.2185" />
<LiquidVolumeAtNormalBoilingPoint name="Liquid molar volume at normal boiling point" units="m3/kmol" value="0.15327" />
<AcentricityFactor name="Acentric factor" units="_" value="0.404163" />
<RadiusOfGyration name="Radius of gyration" units="m" value="4.806E-10" />
<SolubilityParameter name="Solubility parameter" units="J0.5/m1.5" value="19820" />
<DipoleMoment name="Dipole moment" units="Coulomb.m" value="8.3E-31" />
<VanDerWaalsVolume name="Van der Waals volume" units="m3/kmol" value="0.09367" />
<VanDerWaalsArea name="Van der Waals area" units="m2/kmol" value="1.019E+09" />
<HeatOfFormation name="IG heat of formation" units="J/kmol" value="1.869E+08" />
<GibbsEnergyOfFormation name="IG Gibbs energy of formation" units="J/kmol" value="2.901E+08" />
<AbsEntropy name="IG absolute entropy" units="J/kmol/K" value="381500" />
<HeatOfFusionAtMeltingPoint name="Heat of fusion at melting point" units="J/kmol" value="1.9578E+07" />
<MatthiasCopemanC1 name="Mathias-Copeman C1" units="_" value="0.95089" />
<HeatOfCombustion name="Standard net heat of combustion LHV" units="J/kmol" value="-6.4251E+09" />
<SolidDensity name="Solid density" units="kmol/m3">
  <eqno value="2" />
  <A value="7.2313" />
  <B value="-2.9598E-09" />
  <Tmin units="K" value="293.15" />
  <Tmax units="K" value="302.65" />
  </SolidDensity>
<LiquidDensity name="Liquid density" units="kmol/m3">
  <eqno value="105" />
  <A value="0.43683" />
  <B value="0.229" />
  <C value="826" />
  <D value="0.28571" />
  <Tmin units="K" value="387.94" />
  <Tmax units="K" value="826" />
  </LiquidDensity>
<VaporPressure name="Vapour pressure" units="Pa">
  <eqno value="101" />
  <A value="141.8746" />
  <B value="-13833.84" />
  <C value="-17.04805" />
  <D value="0.0000063782" />
  <E value="2" />
  <Tmin units="K" value="387.94" />
  <Tmax units="K" value="870" />
  </VaporPressure>
<HeatOfVaporization name="Heat of vaporization" units="J/kmol">
  <eqno value="106" />
  <A value="9.581E+07" />
  <B value="1.317" />
  <C value="-1.4739" />
  <D value="-0.0034969" />
  <E value="0.61586" />
  <Tmin units="K" value="387.94" />
  <Tmax units="K" value="826" />
  </HeatOfVaporization>
<SolidHeatCapacityCp name="Solid heat capacity" units="J/kmol/K">
  <eqno value="100" />
  <A value="181.01" />
  <B value="986.6" />
  <C value="-3.6964" />
  <D value="0.012043" />
  <E value="-0.000010424" />
  <Tmin units="K" value="98.37" />
  <Tmax units="K" value="387.94" />
  </SolidHeatCapacityCp>
<LiquidHeatCapacityCp name="Liquid heat capacity" units="J/kmol/K">
  <eqno value="16" />
  <A value="172320" />
  <B value="813.11" />
  <C value="3.2969" />
  <D value="0.023275" />
  <E value="-0.000018014" />
  <Tmin units="K" value="387.94" />
  <Tmax units="K" value="450" />
  </LiquidHeatCapacityCp>
<IdealGasHeatCapacityCp name="Ideal gas heat capacity" units="J/kmol/K">
  <eqno value="16" />
  <A value="57825" />
  <B value="-560.42" />
  <C value="13.575" />
  <D value="-0.00027161" />
  <E value="7.5804E-08" />
  <Tmin units="K" value="200" />
  <Tmax units="K" value="1500" />
  </IdealGasHeatCapacityCp>
<SecondVirialCoefficient name="Second virial coefficient" units="m3/kmol">
  <eqno value="104" />
  <A value="-1.7303" />
  <B value="1592" />
  <C value="-617.99" />
  <D value="-13420" />
  <E value="-481950" />
  <Tmin units="K" value="260" />
  <Tmax units="K" value="800" />
  </SecondVirialCoefficient>
<LiquidViscosity name="Liquid viscosity" units="Pa.s">
  <eqno value="101" />
  <A value="-33.053" />
  <B value="2454.9" />
  <C value="3.4575" />
  <D value="-0.0000042581" />
  <E value="2" />
  <Tmin units="K" value="387.94" />
  <Tmax units="K" value="570.44" />
  </LiquidViscosity>
<VaporViscosity name="Vapour viscosity" units="Pa.s">
  <eqno value="102" />
  <A value="5.7084E-07" />
  <B value="0.56204" />
  <C value="373.69" />
  <D value="-49.196" />
  <Tmin units="K" value="570.44" />
  <Tmax units="K" value="1000" />
  </VaporViscosity>
<LiquidThermalConductivity name="Liquid thermal conductivity" units="W/m/K">
  <eqno value="16" />
  <A value="-0.013258" />
  <B value="-130.68" />
  <C value="-0.68476" />
  <D value="-0.0022566" />
  <E value="3.0043E-07" />
  <Tmin units="K" value="387.94" />
  <Tmax units="K" value="570.44" />
  </LiquidThermalConductivity>
<VaporThermalConductivity name="Vapour thermal conductivity" units="W/m/K">
  <eqno value="102" />
  <A value="0.00017437" />
  <B value="0.9152" />
  <C value="500.25" />
  <D value="62613" />
  <Tmin units="K" value="387.94" />
  <Tmax units="K" value="1000" />
  </VaporThermalConductivity>
<SurfaceTension name="Surface tension" units="N/m">
  <eqno value="16" />
  <A value="-0.0067753" />
  <B value="569.69" />
  <C value="-6.1981" />
  <D value="0.007814" />
  <E value="-0.000008755" />
  <Tmin units="K" value="387.94" />
  <Tmax units="K" value="826" />
  </SurfaceTension>
<RPPHeatCapacityCp name="Ideal gas heat capacity (RPP)" units="J/kmol/K">
  <eqno value="4" />
  <A value="-79598" />
  <B value="1036.6" />
  <C value="-0.70705" />
  <D value="0.00017819" />
  <Tmin units="K" value="200" />
  <Tmax units="K" value="1500" />
  </RPPHeatCapacityCp>
<AntoineVaporPressure name="Antoine" units="Pa">
  <eqno value="10" />
  <A value="20.876" />
  <B value="4244" />
  <C value="-116.23" />
  <Tmin units="K" value="503.15" />
  <Tmax units="K" value="733.78" />
  </AntoineVaporPressure>
<LiquidViscosityRPS name="Liquid viscosity (RPS)" units="Pa.s">
  <eqno value="13" />
  <A value="-1.1567" />
  <B value="-0.019014" />
  <C value="0.000011754" />
  <Tmin units="K" value="387.94" />
  <Tmax units="K" value="570.44" />
  </LiquidViscosityRPS>
<COSTALDVolume name="COSTLD characteristic volume (V*)" units="m3/kmol" value="0.517307" />
<DiameterLJ name="Lennard Jones diameter" units="m" value="8.821711E-10" />
<EnergyLJ name="Lennard Jones energy" units="K" value="267.486" />
<FullerVolume name="Fuller et al. diffusion volume" units="_" value="193.2" />
<MatthiasCopemanC2 name="Mathias-Copeman C2" units="_" value="1.5595" />
<Parachor name="Parachor" units="kg0.25.m3/s0.5/kmol" value="0.0651" />
<SpecificGravity name="Specific gravity" units="_" value="1.29618" />
<Charge name="Charge" units="_" value="0" />
<CostaldAcentricFactor name="SRK acentric factor" units="_" value="0.349259" />
<WilsonVolume name="Wilson volume" units="m3/kmol" value="0.128237" />
<UniquacR name="UNIQUAC r" units="_" value="6.174687" />
<UniquacQ name="UNIQUAC q" units="_" value="4.076" />
<MatthiasCopemanC3 name="Mathias-Copeman C3" units="_" value="-3.571" />
<ChaoSeaderAcentricFactor name="Chao-Seader acentric factor" units="_" value="0.349259" />
<ChaoSeaderSolubilityParameter name="Chao-Seader solubility parameter" units="J0.5/m1.5" value="21645.7" />
<ChaoSeaderLiquidVolume name="Chao-Seader liquid volume" units="m3/kmol" value="0.128237" />
<UnifacVLE name="UNIFAC">
  <group id="10" value="8" />
  <group id="11" value="3" />
  <group id="13" value="1" />
  </UnifacVLE>
<UnifacLLE name="UNIFAC-LLE">
  <group id="9" value="8" />
  <group id="10" value="3" />
  <group id="12" value="1" />
  </UnifacLLE>
<Asog name="ASOG">
  <group id="2" value="1" />
  <group id="10" value="8" />
  <group id="11" value="4" />
  </Asog>
<GCmethod name="PPR78">
  <group id="7" value="8" />
  <group id="9" value="4" />
  <group id="10" value="1" />
  </GCmethod>
<Umr name="UMR">
  <group id="10" value="8" />
  <group id="11" value="3" />
  <group id="13" value="1" />
  </Umr>
<ModifiedUnifac name="Modified UNIFAC">
  <group id="9" value="8" />
  <group id="10" value="3" />
  <group id="12" value="1" />
  </ModifiedUnifac>
<CAS name="CAS number" value="86-73-7" />
<Smiles name="SMILES" value="C1=CC=CC2=C1C(C=CC=C3)=C3C2" />
</compound>

