<compound>
<LibraryIndex name="Index" value="717" />
<CompoundID name="Name" value="fluoranthene" />
<StructureFormula name="Structure" value="C16H10" />
<Family name="Family" value="20" />
<CriticalTemperature name="Critical temperature" units="K" value="905" />
<CriticalPressure name="Critical pressure" units="Pa" value="2610000" />
<CriticalVolume name="Critical volume" units="m3/kmol" value="0.655" />
<CriticalCompressibility name="Critical compressibility factor" units="_" value="0.227" />
<NormalBoilingPointTemperature name="Normal boiling point" units="K" value="655.95" />
<NormalMeltingPointTemperature name="Melting point" units="K" value="383.33" />
<TriplePointTemperature name="Triple point temperature" units="K" value="383.33" />
<TriplePointPressure name="Triple point pressure" units="Pa" value="15.7016" />
<MolecularWeight name="Molecular weight" units="kg/kmol" value="202.2506" />
<LiquidVolumeAtNormalBoilingPoint name="Liquid molar volume at normal boiling point" units="m3/kmol" value="0.184362" />
<AcentricityFactor name="Acentric factor" units="_" value="0.587526" />
<RadiusOfGyration name="Radius of gyration" units="m" value="5.357E-10" />
<SolubilityParameter name="Solubility parameter" units="J0.5/m1.5" value="19290" />
<DipoleMoment name="Dipole moment" units="Coulomb.m" value="7.6E-31" />
<VanDerWaalsVolume name="Van der Waals volume" units="m3/kmol" value="0.10904" />
<VanDerWaalsArea name="Van der Waals area" units="m2/kmol" value="1.126E+09" />
<HeatOfFormation name="IG heat of formation" units="J/kmol" value="2.889E+08" />
<GibbsEnergyOfFormation name="IG Gibbs energy of formation" units="J/kmol" value="3.862E+08" />
<AbsEntropy name="IG absolute entropy" units="J/kmol/K" value="418500" />
<HeatOfFusionAtMeltingPoint name="Heat of fusion at melting point" units="J/kmol" value="1.873E+07" />
<MatthiasCopemanC1 name="Mathias-Copeman C1" units="_" value="1.4356" />
<HeatOfCombustion name="Standard net heat of combustion LHV" units="J/kmol" value="-7.695E+09" />
<SolidDensity name="Solid density" units="kmol/m3">
  <eqno value="2" />
  <A value="6.1853" />
  <B value="-3.0518E-09" />
  <Tmin units="K" value="298.15" />
  <Tmax units="K" value="307.65" />
  </SolidDensity>
<LiquidDensity name="Liquid density" units="kmol/m3">
  <eqno value="105" />
  <A value="0.34656" />
  <B value="0.22699" />
  <C value="905" />
  <D value="0.28508" />
  <Tmin units="K" value="298.15" />
  <Tmax units="K" value="905" />
  </LiquidDensity>
<VaporPressure name="Vapour pressure" units="Pa">
  <eqno value="101" />
  <A value="96.11781" />
  <B value="-12362.08" />
  <C value="-10.3511" />
  <D value="0.0000032319" />
  <E value="2" />
  <Tmin units="K" value="383.33" />
  <Tmax units="K" value="905" />
  </VaporPressure>
<HeatOfVaporization name="Heat of vaporization" units="J/kmol">
  <eqno value="106" />
  <A value="1.442678E+08" />
  <B value="2.403711" />
  <C value="-3.376173" />
  <D value="1.404001" />
  <E value="0.0327511" />
  <Tmin units="K" value="383.33" />
  <Tmax units="K" value="905" />
  </HeatOfVaporization>
<SolidHeatCapacityCp name="Solid heat capacity" units="J/kmol/K">
  <eqno value="100" />
  <A value="10497" />
  <B value="781.34" />
  <C value="-1.5505" />
  <D value="0.0075603" />
  <E value="-0.0000095863" />
  <Tmin units="K" value="40" />
  <Tmax units="K" value="383.33" />
  </SolidHeatCapacityCp>
<LiquidHeatCapacityCp name="Liquid heat capacity" units="J/kmol/K">
  <eqno value="16" />
  <A value="241580" />
  <B value="1296.9" />
  <C value="0.78013" />
  <D value="0.023496" />
  <E value="-0.000011773" />
  <Tmin units="K" value="383.33" />
  <Tmax units="K" value="450" />
  </LiquidHeatCapacityCp>
<IdealGasHeatCapacityCp name="Ideal gas heat capacity" units="J/kmol/K">
  <eqno value="16" />
  <A value="59938" />
  <B value="-461.32" />
  <C value="13.513" />
  <D value="-0.00005781" />
  <E value="-5.6701E-09" />
  <Tmin units="K" value="273" />
  <Tmax units="K" value="1500" />
  </IdealGasHeatCapacityCp>
<SecondVirialCoefficient name="Second virial coefficient" units="m3/kmol">
  <eqno value="104" />
  <A value="-2.6301" />
  <B value="2731" />
  <C value="-1234.5" />
  <D value="-125480" />
  <E value="-2369300" />
  <Tmin units="K" value="320" />
  <Tmax units="K" value="800" />
  </SecondVirialCoefficient>
<LiquidViscosity name="Liquid viscosity" units="Pa.s">
  <eqno value="101" />
  <A value="-68.502" />
  <B value="5208.9" />
  <C value="8.4007" />
  <D value="-0.0000042979" />
  <E value="2" />
  <Tmin units="K" value="383.33" />
  <Tmax units="K" value="724" />
  </LiquidViscosity>
<VaporViscosity name="Vapour viscosity" units="Pa.s">
  <eqno value="102" />
  <A value="0.0000010875" />
  <B value="0.41309" />
  <C value="444.51" />
  <D value="-25.424" />
  <Tmin units="K" value="383.33" />
  <Tmax units="K" value="1000" />
  </VaporViscosity>
<LiquidThermalConductivity name="Liquid thermal conductivity" units="W/m/K">
  <eqno value="16" />
  <A value="-0.045864" />
  <B value="-83.397" />
  <C value="-0.96049" />
  <D value="-0.0013219" />
  <E value="-5.1355E-10" />
  <Tmin units="K" value="383.33" />
  <Tmax units="K" value="655.95" />
  </LiquidThermalConductivity>
<VaporThermalConductivity name="Vapour thermal conductivity" units="W/m/K">
  <eqno value="102" />
  <A value="0.00011776" />
  <B value="0.94788" />
  <C value="660.84" />
  <D value="38292" />
  <Tmin units="K" value="383.33" />
  <Tmax units="K" value="1000" />
  </VaporThermalConductivity>
<SurfaceTension name="Surface tension" units="N/m">
  <eqno value="16" />
  <A value="-0.0081035" />
  <B value="309.57" />
  <C value="-4.4853" />
  <D value="0.0031868" />
  <E value="-0.0000043723" />
  <Tmin units="K" value="383.33" />
  <Tmax units="K" value="905" />
  </SurfaceTension>
<RPPHeatCapacityCp name="Ideal gas heat capacity (RPP)" units="J/kmol/K">
  <eqno value="4" />
  <A value="-68523" />
  <B value="1184.2" />
  <C value="-0.82804" />
  <D value="0.00021044" />
  <Tmin units="K" value="300" />
  <Tmax units="K" value="1500" />
  </RPPHeatCapacityCp>
<AntoineVaporPressure name="Antoine" units="Pa">
  <eqno value="10" />
  <A value="22.781" />
  <B value="7232" />
  <C value="-13.315" />
  <Tmin units="K" value="543.15" />
  <Tmax units="K" value="795.17" />
  </AntoineVaporPressure>
<LiquidViscosityRPS name="Liquid viscosity (RPS)" units="Pa.s">
  <eqno value="13" />
  <A value="2.8909" />
  <B value="-0.030333" />
  <C value="0.000021268" />
  <Tmin units="K" value="383.33" />
  <Tmax units="K" value="655.95" />
  </LiquidViscosityRPS>
<COSTALDVolume name="COSTLD characteristic volume (V*)" units="m3/kmol" value="0.615194" />
<DiameterLJ name="Lennard Jones diameter" units="m" value="9.603459E-10" />
<EnergyLJ name="Lennard Jones energy" units="K" value="283.9585" />
<RacketParameter name="Rackett parameter" units="_" value="0.227055" />
<FullerVolume name="Fuller et al. diffusion volume" units="_" value="222.6" />
<MatthiasCopemanC2 name="Mathias-Copeman C2" units="_" value="-1.4092" />
<Parachor name="Parachor" units="kg0.25.m3/s0.5/kmol" value="0.0768" />
<SpecificGravity name="Specific gravity" units="_" value="1.16484" />
<Charge name="Charge" units="_" value="0" />
<CostaldAcentricFactor name="SRK acentric factor" units="_" value="0.5" />
<WilsonVolume name="Wilson volume" units="m3/kmol" value="0.184693" />
<UniquacR name="UNIQUAC r" units="_" value="7.187871" />
<UniquacQ name="UNIQUAC q" units="_" value="4.504" />
<MatthiasCopemanC3 name="Mathias-Copeman C3" units="_" value="1.5027" />
<ChaoSeaderAcentricFactor name="Chao-Seader acentric factor" units="_" value="0.5" />
<ChaoSeaderSolubilityParameter name="Chao-Seader solubility parameter" units="J0.5/m1.5" value="19277.2" />
<ChaoSeaderLiquidVolume name="Chao-Seader liquid volume" units="m3/kmol" value="0.184693" />
<UnifacVLE name="UNIFAC">
  <group id="10" value="10" />
  <group id="11" value="6" />
  </UnifacVLE>
<UnifacLLE name="UNIFAC-LLE">
  <group id="9" value="10" />
  <group id="10" value="6" />
  </UnifacLLE>
<Asog name="ASOG">
  <group id="10" value="10" />
  <group id="11" value="6" />
  </Asog>
<GCmethod name="PPR78">
  <group id="7" value="10" />
  <group id="9" value="6" />
  </GCmethod>
<Umr name="UMR">
  <group id="10" value="10" />
  <group id="11" value="6" />
  </Umr>
<ModifiedUnifac name="Modified UNIFAC">
  <group id="9" value="10" />
  <group id="10" value="6" />
  </ModifiedUnifac>
<CAS name="CAS number" value="206-44-0" />
<Smiles name="SMILES" value="C1=CC2=C(C=C1)C1=CC=CC3=C1C2=CC=C3" />
</compound>

