<compound>
<LibraryIndex name="Index" value="1009" />
<CompoundID name="Name" value="hexanal" />
<StructureFormula name="Structure" value="CH3(CH2)4CHO" />
<Family name="Family" value="25" />
<CriticalTemperature name="Critical temperature" units="K" value="579" />
<CriticalPressure name="Critical pressure" units="Pa" value="3110000" />
<CriticalVolume name="Critical volume" units="m3/kmol" value="0.369" />
<CriticalCompressibility name="Critical compressibility factor" units="_" value="0.26" />
<NormalBoilingPointTemperature name="Normal boiling point" units="K" value="401.45" />
<NormalMeltingPointTemperature name="Melting point" units="K" value="217.15" />
<TriplePointTemperature name="Triple point temperature" units="K" value="217.15" />
<TriplePointPressure name="Triple point pressure" units="Pa" value="1.24729" />
<MolecularWeight name="Molecular weight" units="kg/kmol" value="100.1589" />
<LiquidVolumeAtNormalBoilingPoint name="Liquid molar volume at normal boiling point" units="m3/kmol" value="0.123708" />
<AcentricityFactor name="Acentric factor" units="_" value="0.439121" />
<RadiusOfGyration name="Radius of gyration" units="m" value="3.924E-10" />
<SolubilityParameter name="Solubility parameter" units="J0.5/m1.5" value="18150" />
<DipoleMoment name="Dipole moment" units="Coulomb.m" value="8.6E-30" />
<VanDerWaalsVolume name="Van der Waals volume" units="m3/kmol" value="0.06973" />
<VanDerWaalsArea name="Van der Waals area" units="m2/kmol" value="9.89E+08" />
<HeatOfFormation name="IG heat of formation" units="J/kmol" value="-2.4732E+08" />
<GibbsEnergyOfFormation name="IG Gibbs energy of formation" units="J/kmol" value="-9.882E+07" />
<AbsEntropy name="IG absolute entropy" units="J/kmol/K" value="422140" />
<HeatOfFusionAtMeltingPoint name="Heat of fusion at melting point" units="J/kmol" value="1.89E+07" />
<MatthiasCopemanC1 name="Mathias-Copeman C1" units="_" value="1.135951" />
<HeatOfCombustion name="Standard net heat of combustion LHV" units="J/kmol" value="-3.52E+09" />
<SolidDensity name="Solid density" units="kmol/m3">
  <eqno value="2" />
  <A value="11.093" />
  <B value="-0.0058504" />
  <C value="0" />
  <D value="0" />
  <E value="0" />
  <Tmin units="K" value="86.86" />
  <Tmax units="K" value="217.15" />
  </SolidDensity>
<LiquidDensity name="Liquid density" units="kmol/m3">
  <eqno value="105" />
  <A value="1.3196" />
  <B value="0.35571" />
  <C value="579" />
  <D value="0.38551" />
  <Tmin units="K" value="217.15" />
  <Tmax units="K" value="571.32" />
  </LiquidDensity>
<VaporPressure name="Vapour pressure" units="Pa">
  <eqno value="101" />
  <A value="209.3738" />
  <B value="-12430.59" />
  <C value="-28.59364" />
  <D value="0.0000281667" />
  <E value="2" />
  <Tmin units="K" value="217.15" />
  <Tmax units="K" value="591" />
  </VaporPressure>
<HeatOfVaporization name="Heat of vaporization" units="J/kmol">
  <eqno value="106" />
  <A value="5.570251E+07" />
  <B value="-0.000821879" />
  <C value="0.788181" />
  <D value="-0.0470431" />
  <E value="-0.460389" />
  <Tmin units="K" value="217.15" />
  <Tmax units="K" value="571.32" />
  </HeatOfVaporization>
<SolidHeatCapacityCp name="Solid heat capacity" units="J/kmol/K">
  <eqno value="100" />
  <A value="-16038" />
  <B value="1391.2" />
  <C value="-4.6944" />
  <D value="0.002827" />
  <E value="0.000027528" />
  <Tmin units="K" value="20" />
  <Tmax units="K" value="214.94" />
  </SolidHeatCapacityCp>
<LiquidHeatCapacityCp name="Liquid heat capacity" units="J/kmol/K">
  <eqno value="16" />
  <A value="175480" />
  <B value="98.975" />
  <C value="6.7267" />
  <D value="0.013876" />
  <E value="-0.0000081365" />
  <Tmin units="K" value="214.94" />
  <Tmax units="K" value="443.25" />
  </LiquidHeatCapacityCp>
<IdealGasHeatCapacityCp name="Ideal gas heat capacity" units="J/kmol/K">
  <eqno value="16" />
  <A value="115820" />
  <B value="-867.39" />
  <C value="13.422" />
  <D value="-0.00036658" />
  <E value="7.4569E-08" />
  <Tmin units="K" value="200" />
  <Tmax units="K" value="1500" />
  </IdealGasHeatCapacityCp>
<SecondVirialCoefficient name="Second virial coefficient" units="m3/kmol">
  <eqno value="104" />
  <A value="0.23651" />
  <B value="-272.87" />
  <C value="-57.26" />
  <D value="-28587" />
  <E value="42501" />
  <Tmin units="K" value="295.5" />
  <Tmax units="K" value="1500" />
  </SecondVirialCoefficient>
<LiquidViscosity name="Liquid viscosity" units="Pa.s">
  <eqno value="101" />
  <A value="-11.85" />
  <B value="1055.4" />
  <C value="0.17945" />
  <D value="-3.4838E-07" />
  <E value="2" />
  <Tmin units="K" value="217.15" />
  <Tmax units="K" value="473" />
  </LiquidViscosity>
<VaporViscosity name="Vapour viscosity" units="Pa.s">
  <eqno value="102" />
  <A value="1.6626E-07" />
  <B value="0.71206" />
  <C value="185.2" />
  <D value="-6483.1" />
  <Tmin units="K" value="217.15" />
  <Tmax units="K" value="1000" />
  </VaporViscosity>
<LiquidThermalConductivity name="Liquid thermal conductivity" units="W/m/K">
  <eqno value="16" />
  <A value="0.0039289" />
  <B value="-19.957" />
  <C value="-1.3588" />
  <D value="-0.0017925" />
  <E value="-6.0508E-07" />
  <Tmin units="K" value="217.15" />
  <Tmax units="K" value="533.15" />
  </LiquidThermalConductivity>
<VaporThermalConductivity name="Vapour thermal conductivity" units="W/m/K">
  <eqno value="102" />
  <A value="-5919900" />
  <B value="-0.017833" />
  <C value="2.2842E+09" />
  <D value="-4.7916E+13" />
  <Tmin units="K" value="217.15" />
  <Tmax units="K" value="1000" />
  </VaporThermalConductivity>
<SurfaceTension name="Surface tension" units="N/m">
  <eqno value="16" />
  <A value="-0.0098512" />
  <B value="146.83" />
  <C value="-4.2826" />
  <D value="0.0042701" />
  <E value="-0.000009235" />
  <Tmin units="K" value="217.15" />
  <Tmax units="K" value="571.32" />
  </SurfaceTension>
<RPPHeatCapacityCp name="Ideal gas heat capacity (RPP)" units="J/kmol/K">
  <eqno value="4" />
  <A value="29579" />
  <B value="452.38" />
  <C value="-0.16247" />
  <D value="0.0000084363" />
  <Tmin units="K" value="200" />
  <Tmax units="K" value="1500" />
  </RPPHeatCapacityCp>
<AntoineVaporPressure name="Antoine" units="Pa">
  <eqno value="10" />
  <A value="20.836" />
  <B value="3074" />
  <C value="-71.172" />
  <Tmin units="K" value="352.15" />
  <Tmax units="K" value="512.29" />
  </AntoineVaporPressure>
<LiquidViscosityRPS name="Liquid viscosity (RPS)" units="Pa.s">
  <eqno value="12" />
  <A value="-3.7935" />
  <B value="-0.011421" />
  <Tmin units="K" value="217.15" />
  <Tmax units="K" value="401.45" />
  </LiquidViscosityRPS>
<COSTALDVolume name="COSTLD characteristic volume (V*)" units="m3/kmol" value="0.375336" />
<DiameterLJ name="Lennard Jones diameter" units="m" value="6.739367E-10" />
<EnergyLJ name="Lennard Jones energy" units="K" value="296.1391" />
<RacketParameter name="Rackett parameter" units="_" value="0.247825" />
<FullerVolume name="Fuller et al. diffusion volume" units="_" value="129.23" />
<MatthiasCopemanC2 name="Mathias-Copeman C2" units="_" value="0" />
<Parachor name="Parachor" units="kg0.25.m3/s0.5/kmol" value="0.0492739" />
<SpecificGravity name="Specific gravity" units="_" value="0.821257" />
<Charge name="Charge" units="_" value="0" />
<CostaldAcentricFactor name="SRK acentric factor" units="_" value="0.439121" />
<WilsonVolume name="Wilson volume" units="m3/kmol" value="0.123708" />
<UniquacR name="UNIQUAC r" units="_" value="4.5967" />
<UniquacQ name="UNIQUAC q" units="_" value="3.956" />
<MatthiasCopemanC3 name="Mathias-Copeman C3" units="_" value="0" />
<ChaoSeaderAcentricFactor name="Chao-Seader acentric factor" units="_" value="0.387184" />
<ChaoSeaderSolubilityParameter name="Chao-Seader solubility parameter" units="J0.5/m1.5" value="18150" />
<ChaoSeaderLiquidVolume name="Chao-Seader liquid volume" units="m3/kmol" value="0.123708" />
<UnifacVLE name="UNIFAC">
  <group id="1" value="1" />
  <group id="2" value="4" />
  <group id="21" value="1" />
  </UnifacVLE>
<UnifacLLE name="UNIFAC-LLE">
  <group id="1" value="1" />
  <group id="2" value="4" />
  <group id="21" value="1" />
  </UnifacLLE>
<Asog name="ASOG">
  <group id="1" value="1" />
  <group id="2" value="4" />
  <group id="20" value="1" />
  </Asog>
<Umr name="UMR">
  <group id="1" value="1" />
  <group id="2" value="4" />
  <group id="21" value="1" />
  </Umr>
<ModifiedUnifac name="Modified UNIFAC">
  <group id="1" value="1" />
  <group id="2" value="4" />
  <group id="20" value="1" />
  </ModifiedUnifac>
<CAS name="CAS number" value="66-25-1" />
<Smiles name="SMILES" value="CCCCCC=O" />
</compound>

