<compound>
<LibraryIndex name="Index" value="820" />
<CompoundID name="Name" value="indane" />
<StructureFormula name="Structure" value="C6H4(CH2)3" />
<Family name="Family" value="23" />
<CriticalTemperature name="Critical temperature" units="K" value="684.9" />
<CriticalPressure name="Critical pressure" units="Pa" value="3950000" />
<CriticalVolume name="Critical volume" units="m3/kmol" value="0.393" />
<CriticalCompressibility name="Critical compressibility factor" units="_" value="0.273" />
<NormalBoilingPointTemperature name="Normal boiling point" units="K" value="451" />
<NormalMeltingPointTemperature name="Melting point" units="K" value="221.74" />
<TriplePointTemperature name="Triple point temperature" units="K" value="221.74" />
<TriplePointPressure name="Triple point pressure" units="Pa" value="0.152927" />
<MolecularWeight name="Molecular weight" units="kg/kmol" value="118.1757" />
<LiquidVolumeAtNormalBoilingPoint name="Liquid molar volume at normal boiling point" units="m3/kmol" value="0.12315" />
<AcentricityFactor name="Acentric factor" units="_" value="0.309213" />
<RadiusOfGyration name="Radius of gyration" units="m" value="3.85E-10" />
<SolubilityParameter name="Solubility parameter" units="J0.5/m1.5" value="19420" />
<DipoleMoment name="Dipole moment" units="Coulomb.m" value="1.8E-30" />
<VanDerWaalsVolume name="Van der Waals volume" units="m3/kmol" value="0.07075" />
<VanDerWaalsArea name="Van der Waals area" units="m2/kmol" value="7.77E+08" />
<HeatOfFormation name="IG heat of formation" units="J/kmol" value="6.07E+07" />
<GibbsEnergyOfFormation name="IG Gibbs energy of formation" units="J/kmol" value="1.668E+08" />
<AbsEntropy name="IG absolute entropy" units="J/kmol/K" value="348910" />
<HeatOfFusionAtMeltingPoint name="Heat of fusion at melting point" units="J/kmol" value="8598000" />
<MatthiasCopemanC1 name="Mathias-Copeman C1" units="_" value="0.87712" />
<HeatOfCombustion name="Standard net heat of combustion LHV" units="J/kmol" value="-4.7626E+09" />
<SolidDensity name="Solid density" units="kmol/m3">
  <eqno value="2" />
  <A value="10.978" />
  <B value="-0.0055307" />
  <Tmin units="K" value="88.7" />
  <Tmax units="K" value="221.74" />
  </SolidDensity>
<LiquidDensity name="Liquid density" units="kmol/m3">
  <eqno value="105" />
  <A value="0.63627" />
  <B value="0.25179" />
  <C value="684.9" />
  <D value="0.29165" />
  <Tmin units="K" value="221.74" />
  <Tmax units="K" value="684.9" />
  </LiquidDensity>
<VaporPressure name="Vapour pressure" units="Pa">
  <eqno value="101" />
  <A value="97.02207" />
  <B value="-8795.05" />
  <C value="-11.00248" />
  <D value="6.105132E-06" />
  <E value="2" />
  <Tmin units="K" value="221.74" />
  <Tmax units="K" value="684.9" />
  </VaporPressure>
<HeatOfVaporization name="Heat of vaporization" units="J/kmol">
  <eqno value="106" />
  <A value="6.2067E+07" />
  <B value="-0.0045874" />
  <C value="2.0817" />
  <D value="-3.2476" />
  <E value="1.6013" />
  <Tmin units="K" value="221.74" />
  <Tmax units="K" value="684.9" />
  </HeatOfVaporization>
<SolidHeatCapacityCp name="Solid heat capacity" units="J/kmol/K">
  <eqno value="100" />
  <A value="-355.12" />
  <B value="1287.7" />
  <C value="-10.018" />
  <D value="0.047026" />
  <E value="-0.000077286" />
  <Tmin units="K" value="50" />
  <Tmax units="K" value="221.8" />
  </SolidHeatCapacityCp>
<LiquidHeatCapacityCp name="Liquid heat capacity" units="J/kmol/K">
  <eqno value="16" />
  <A value="136380" />
  <B value="-29.478" />
  <C value="8.0608" />
  <D value="0.01305" />
  <E value="-0.000010993" />
  <Tmin units="K" value="221.74" />
  <Tmax units="K" value="451.12" />
  </LiquidHeatCapacityCp>
<IdealGasHeatCapacityCp name="Ideal gas heat capacity" units="J/kmol/K">
  <eqno value="16" />
  <A value="60321" />
  <B value="-643.06" />
  <C value="13.337" />
  <D value="-0.00018807" />
  <E value="3.6677E-08" />
  <Tmin units="K" value="200" />
  <Tmax units="K" value="1500" />
  </IdealGasHeatCapacityCp>
<SecondVirialCoefficient name="Second virial coefficient" units="m3/kmol">
  <eqno value="104" />
  <A value="0.087726" />
  <B value="-163.08" />
  <C value="-117.03" />
  <D value="24981" />
  <E value="-82865" />
  <Tmin units="K" value="342.45" />
  <Tmax units="K" value="1500" />
  </SecondVirialCoefficient>
<LiquidViscosity name="Liquid viscosity" units="Pa.s">
  <eqno value="101" />
  <A value="-151.95" />
  <B value="6810.2" />
  <C value="21.863" />
  <D value="-0.00002342" />
  <E value="2" />
  <Tmin units="K" value="221.74" />
  <Tmax units="K" value="547.92" />
  </LiquidViscosity>
<VaporViscosity name="Vapour viscosity" units="Pa.s">
  <eqno value="102" />
  <A value="0.0000002842" />
  <B value="0.64259" />
  <C value="225.95" />
  <D value="-643.44" />
  <Tmin units="K" value="221.74" />
  <Tmax units="K" value="1000" />
  </VaporViscosity>
<LiquidThermalConductivity name="Liquid thermal conductivity" units="W/m/K">
  <eqno value="16" />
  <A value="-0.041318" />
  <B value="5.7098" />
  <C value="-1.5369" />
  <D value="-0.00043639" />
  <E value="-0.0000010195" />
  <Tmin units="K" value="221.74" />
  <Tmax units="K" value="451.12" />
  </LiquidThermalConductivity>
<VaporThermalConductivity name="Vapour thermal conductivity" units="W/m/K">
  <eqno value="102" />
  <A value="0.0089527" />
  <B value="0.43447" />
  <C value="617.91" />
  <D value="764370" />
  <Tmin units="K" value="221.74" />
  <Tmax units="K" value="1000" />
  </VaporThermalConductivity>
<SurfaceTension name="Surface tension" units="N/m">
  <eqno value="16" />
  <A value="-0.0094403" />
  <B value="81.588" />
  <C value="-3.3664" />
  <D value="0.0013789" />
  <E value="-0.000005115" />
  <Tmin units="K" value="221.74" />
  <Tmax units="K" value="684.9" />
  </SurfaceTension>
<RPPHeatCapacityCp name="Ideal gas heat capacity (RPP)" units="J/kmol/K">
  <eqno value="4" />
  <A value="-47835" />
  <B value="715.44" />
  <C value="-0.41555" />
  <D value="0.0000889" />
  <Tmin units="K" value="200" />
  <Tmax units="K" value="1500" />
  </RPPHeatCapacityCp>
<AntoineVaporPressure name="Antoine" units="Pa">
  <eqno value="10" />
  <A value="21.208" />
  <B value="3817.3" />
  <C value="-56.866" />
  <Tmin units="K" value="412" />
  <Tmax units="K" value="611.77" />
  </AntoineVaporPressure>
<LiquidViscosityRPS name="Liquid viscosity (RPS)" units="Pa.s">
  <eqno value="13" />
  <A value="3.0311" />
  <B value="-0.045083" />
  <C value="0.000044726" />
  <Tmin units="K" value="221.74" />
  <Tmax units="K" value="547.92" />
  </LiquidViscosityRPS>
<COSTALDVolume name="COSTLD characteristic volume (V*)" units="m3/kmol" value="0.381158" />
<DiameterLJ name="Lennard Jones diameter" units="m" value="6.491035E-10" />
<EnergyLJ name="Lennard Jones energy" units="K" value="417.5667" />
<RacketParameter name="Rackett parameter" units="_" value="0.263427" />
<FullerVolume name="Fuller et al. diffusion volume" units="_" value="147.9" />
<MatthiasCopemanC2 name="Mathias-Copeman C2" units="_" value="0.40707" />
<Parachor name="Parachor" units="kg0.25.m3/s0.5/kmol" value="0.0528" />
<SpecificGravity name="Specific gravity" units="_" value="0.862893" />
<Charge name="Charge" units="_" value="0" />
<CostaldAcentricFactor name="SRK acentric factor" units="_" value="0.305" />
<WilsonVolume name="Wilson volume" units="m3/kmol" value="0.123128" />
<UniquacR name="UNIQUAC r" units="_" value="4.66381" />
<UniquacQ name="UNIQUAC q" units="_" value="3.108" />
<MatthiasCopemanC3 name="Mathias-Copeman C3" units="_" value="-0.85719" />
<ChaoSeaderAcentricFactor name="Chao-Seader acentric factor" units="_" value="0.305" />
<ChaoSeaderSolubilityParameter name="Chao-Seader solubility parameter" units="J0.5/m1.5" value="19405.1" />
<ChaoSeaderLiquidVolume name="Chao-Seader liquid volume" units="m3/kmol" value="0.123128" />
<UnifacVLE name="UNIFAC">
  <group id="2" value="1" />
  <group id="10" value="4" />
  <group id="13" value="2" />
  </UnifacVLE>
<UnifacLLE name="UNIFAC-LLE">
  <group id="2" value="1" />
  <group id="9" value="4" />
  <group id="12" value="2" />
  </UnifacLLE>
<Asog name="ASOG">
  <group id="2" value="3" />
  <group id="10" value="4" />
  <group id="11" value="2" />
  </Asog>
<GCmethod name="PPR78">
  <group id="7" value="4" />
  <group id="9" value="2" />
  <group id="10" value="3" />
  </GCmethod>
<Umr name="UMR">
  <group id="2" value="1" />
  <group id="10" value="4" />
  <group id="13" value="2" />
  </Umr>
<ModifiedUnifac name="Modified UNIFAC">
  <group id="2" value="1" />
  <group id="9" value="4" />
  <group id="12" value="2" />
  </ModifiedUnifac>
<CAS name="CAS number" value="496-11-7" />
<Smiles name="SMILES" value="C1=CC2=C(C=C1)CCC2" />
</compound>

