<compound>
<LibraryIndex name="Index" value="803" />
<CompoundID name="Name" value="indene" />
<StructureFormula name="Structure" value="C6H4(CH2CHCH)" />
<Family name="Family" value="23" />
<CriticalTemperature name="Critical temperature" units="K" value="687" />
<CriticalPressure name="Critical pressure" units="Pa" value="3820000" />
<CriticalVolume name="Critical volume" units="m3/kmol" value="0.368" />
<CriticalCompressibility name="Critical compressibility factor" units="_" value="0.246" />
<NormalBoilingPointTemperature name="Normal boiling point" units="K" value="455.77" />
<NormalMeltingPointTemperature name="Melting point" units="K" value="271.7" />
<TriplePointTemperature name="Triple point temperature" units="K" value="271.7" />
<TriplePointPressure name="Triple point pressure" units="Pa" value="17.0209" />
<MolecularWeight name="Molecular weight" units="kg/kmol" value="116.1598" />
<LiquidVolumeAtNormalBoilingPoint name="Liquid molar volume at normal boiling point" units="m3/kmol" value="0.116856" />
<AcentricityFactor name="Acentric factor" units="_" value="0.333766" />
<RadiusOfGyration name="Radius of gyration" units="m" value="3.839E-10" />
<SolubilityParameter name="Solubility parameter" units="J0.5/m1.5" value="20310" />
<DipoleMoment name="Dipole moment" units="Coulomb.m" value="2.23E-30" />
<VanDerWaalsVolume name="Van der Waals volume" units="m3/kmol" value="0.06723" />
<VanDerWaalsArea name="Van der Waals area" units="m2/kmol" value="7.23E+08" />
<HeatOfFormation name="IG heat of formation" units="J/kmol" value="1.6328E+08" />
<GibbsEnergyOfFormation name="IG Gibbs energy of formation" units="J/kmol" value="2.3396E+08" />
<AbsEntropy name="IG absolute entropy" units="J/kmol/K" value="336870" />
<HeatOfFusionAtMeltingPoint name="Heat of fusion at melting point" units="J/kmol" value="1.02E+07" />
<MatthiasCopemanC1 name="Mathias-Copeman C1" units="_" value="1.2681" />
<HeatOfCombustion name="Standard net heat of combustion LHV" units="J/kmol" value="-4.61948E+09" />
<SolidDensity name="Solid density" units="kmol/m3">
  <eqno value="2" />
  <A value="11.129" />
  <B value="-0.0046181" />
  <Tmin units="K" value="108.68" />
  <Tmax units="K" value="271.7" />
  </SolidDensity>
<LiquidDensity name="Liquid density" units="kmol/m3">
  <eqno value="105" />
  <A value="0.68574" />
  <B value="0.25341" />
  <C value="687" />
  <D value="0.30914" />
  <Tmin units="K" value="271.7" />
  <Tmax units="K" value="665.14" />
  </LiquidDensity>
<VaporPressure name="Vapour pressure" units="Pa">
  <eqno value="101" />
  <A value="198.3126" />
  <B value="-13212.05" />
  <C value="-26.47637" />
  <D value="0.0000206314" />
  <E value="2" />
  <Tmin units="K" value="271.7" />
  <Tmax units="K" value="687" />
  </VaporPressure>
<HeatOfVaporization name="Heat of vaporization" units="J/kmol">
  <eqno value="106" />
  <A value="1.127174E+08" />
  <B value="2.195635" />
  <C value="-2.278889" />
  <D value="0.782692" />
  <E value="-0.231351" />
  <Tmin units="K" value="271.7" />
  <Tmax units="K" value="665.14" />
  </HeatOfVaporization>
<SolidHeatCapacityCp name="Solid heat capacity" units="J/kmol/K">
  <eqno value="100" />
  <A value="-52909" />
  <B value="1891.2" />
  <C value="-10.945" />
  <D value="0.035915" />
  <E value="-0.000041132" />
  <Tmin units="K" value="100" />
  <Tmax units="K" value="271.7" />
  </SolidHeatCapacityCp>
<LiquidHeatCapacityCp name="Liquid heat capacity" units="J/kmol/K">
  <eqno value="16" />
  <A value="87661" />
  <B value="-18.633" />
  <C value="10.258" />
  <D value="0.0056195" />
  <E value="-0.0000040934" />
  <Tmin units="K" value="271.7" />
  <Tmax units="K" value="400" />
  </LiquidHeatCapacityCp>
<IdealGasHeatCapacityCp name="Ideal gas heat capacity" units="J/kmol/K">
  <eqno value="16" />
  <A value="54598" />
  <B value="-572.63" />
  <C value="13.077" />
  <D value="-0.000062304" />
  <E value="-1.4084E-09" />
  <Tmin units="K" value="200" />
  <Tmax units="K" value="1500" />
  </IdealGasHeatCapacityCp>
<SecondVirialCoefficient name="Second virial coefficient" units="m3/kmol">
  <eqno value="104" />
  <A value="0.40021" />
  <B value="-548.58" />
  <C value="-63.413" />
  <D value="-36103" />
  <E value="53578" />
  <Tmin units="K" value="280" />
  <Tmax units="K" value="1500" />
  </SecondVirialCoefficient>
<LiquidViscosity name="Liquid viscosity" units="Pa.s">
  <eqno value="101" />
  <A value="-136.89" />
  <B value="6165.4" />
  <C value="19.669" />
  <D value="-0.000025488" />
  <E value="2" />
  <Tmin units="K" value="271.7" />
  <Tmax units="K" value="455.77" />
  </LiquidViscosity>
<VaporViscosity name="Vapour viscosity" units="Pa.s">
  <eqno value="102" />
  <A value="8.1278E-07" />
  <B value="0.4938" />
  <C value="370.54" />
  <D value="-3708.9" />
  <Tmin units="K" value="271.7" />
  <Tmax units="K" value="1000" />
  </VaporViscosity>
<LiquidThermalConductivity name="Liquid thermal conductivity" units="W/m/K">
  <eqno value="16" />
  <A value="-0.0034145" />
  <B value="-80.459" />
  <C value="-0.91571" />
  <D value="-0.0024408" />
  <E value="2.3991E-07" />
  <Tmin units="K" value="271.7" />
  <Tmax units="K" value="455.77" />
  </LiquidThermalConductivity>
<VaporThermalConductivity name="Vapour thermal conductivity" units="W/m/K">
  <eqno value="102" />
  <A value="0.000075165" />
  <B value="1.055" />
  <C value="558.89" />
  <D value="35355" />
  <Tmin units="K" value="271.7" />
  <Tmax units="K" value="1000" />
  </VaporThermalConductivity>
<SurfaceTension name="Surface tension" units="N/m">
  <eqno value="16" />
  <A value="-0.0084894" />
  <B value="135.54" />
  <C value="-3.7264" />
  <D value="0.0026269" />
  <E value="-0.0000065847" />
  <Tmin units="K" value="271.7" />
  <Tmax units="K" value="665.14" />
  </SurfaceTension>
<RPPHeatCapacityCp name="Ideal gas heat capacity (RPP)" units="J/kmol/K">
  <eqno value="4" />
  <A value="-34733" />
  <B value="643.24" />
  <C value="-0.38654" />
  <D value="0.00008602" />
  <Tmin units="K" value="200" />
  <Tmax units="K" value="1500" />
  </RPPHeatCapacityCp>
<AntoineVaporPressure name="Antoine" units="Pa">
  <eqno value="10" />
  <A value="20.786" />
  <B value="3534.8" />
  <C value="-73.926" />
  <Tmin units="K" value="413.15" />
  <Tmax units="K" value="599.57" />
  </AntoineVaporPressure>
<LiquidViscosityRPS name="Liquid viscosity (RPS)" units="Pa.s">
  <eqno value="13" />
  <A value="2.2731" />
  <B value="-0.040741" />
  <C value="0.000039218" />
  <Tmin units="K" value="271.7" />
  <Tmax units="K" value="455.77" />
  </LiquidViscosityRPS>
<COSTALDVolume name="COSTLD characteristic volume (V*)" units="m3/kmol" value="0.36114" />
<DiameterLJ name="Lennard Jones diameter" units="m" value="7.195685E-10" />
<EnergyLJ name="Lennard Jones energy" units="K" value="287.8965" />
<RacketParameter name="Rackett parameter" units="_" value="0.261272" />
<FullerVolume name="Fuller et al. diffusion volume" units="_" value="124.98" />
<MatthiasCopemanC2 name="Mathias-Copeman C2" units="_" value="-2.481" />
<Parachor name="Parachor" units="kg0.25.m3/s0.5/kmol" value="0.0516" />
<SpecificGravity name="Specific gravity" units="_" value="1.00263" />
<Charge name="Charge" units="_" value="0" />
<CostaldAcentricFactor name="SRK acentric factor" units="_" value="0.262" />
<WilsonVolume name="Wilson volume" units="m3/kmol" value="0.116856" />
<UniquacR name="UNIQUAC r" units="_" value="4.431773" />
<UniquacQ name="UNIQUAC q" units="_" value="2.892" />
<ApiSrkS2 name="API-SRK s2" units="_" value="-0.02812" />
<MatthiasCopemanC3 name="Mathias-Copeman C3" units="_" value="4.8814" />
<ChaoSeaderAcentricFactor name="Chao-Seader acentric factor" units="_" value="0.262" />
<ChaoSeaderSolubilityParameter name="Chao-Seader solubility parameter" units="J0.5/m1.5" value="20467.4" />
<ChaoSeaderLiquidVolume name="Chao-Seader liquid volume" units="m3/kmol" value="0.116856" />
<UnifacVLE name="UNIFAC">
  <group id="6" value="1" />
  <group id="10" value="4" />
  <group id="11" value="1" />
  <group id="13" value="1" />
  </UnifacVLE>
<UnifacLLE name="UNIFAC-LLE">
  <group id="6" value="1" />
  <group id="9" value="4" />
  <group id="10" value="1" />
  <group id="12" value="1" />
  </UnifacLLE>
<Asog name="ASOG">
  <group id="2" value="1" />
  <group id="6" value="1" />
  <group id="10" value="4" />
  <group id="11" value="2" />
  </Asog>
<GCmethod name="PPR78">
  <group id="7" value="4" />
  <group id="9" value="2" />
  <group id="10" value="1" />
  <group id="18" value="2" />
  </GCmethod>
<Umr name="UMR">
  <group id="6" value="1" />
  <group id="10" value="4" />
  <group id="11" value="1" />
  <group id="13" value="1" />
  </Umr>
<ModifiedUnifac name="Modified UNIFAC">
  <group id="6" value="1" />
  <group id="9" value="4" />
  <group id="10" value="1" />
  <group id="12" value="1" />
  </ModifiedUnifac>
<CAS name="CAS number" value="95-13-6" />
<Smiles name="SMILES" value="c1(CC=C2)c2cccc1" />
</compound>

