<compound>
<LibraryIndex name="Index" value="519" />
<CompoundID name="Name" value="isobutylbenzene" />
<StructureFormula name="Structure" value="(C6H5)CH2CH(CH3)2" />
<Family name="Family" value="10" />
<CriticalTemperature name="Critical temperature" units="K" value="650" />
<CriticalPressure name="Critical pressure" units="Pa" value="3050000" />
<CriticalVolume name="Critical volume" units="m3/kmol" value="0.48" />
<CriticalCompressibility name="Critical compressibility factor" units="_" value="0.271" />
<NormalBoilingPointTemperature name="Normal boiling point" units="K" value="445.9" />
<NormalMeltingPointTemperature name="Melting point" units="K" value="221.7" />
<TriplePointTemperature name="Triple point temperature" units="K" value="221.7" />
<TriplePointPressure name="Triple point pressure" units="Pa" value="0.289087" />
<MolecularWeight name="Molecular weight" units="kg/kmol" value="134.2182" />
<LiquidVolumeAtNormalBoilingPoint name="Liquid molar volume at normal boiling point" units="m3/kmol" value="0.15808" />
<AcentricityFactor name="Acentric factor" units="_" value="0.383" />
<RadiusOfGyration name="Radius of gyration" units="m" value="4.555E-10" />
<SolubilityParameter name="Solubility parameter" units="J0.5/m1.5" value="16860" />
<DipoleMoment name="Dipole moment" units="Coulomb.m" value="1.5E-30" />
<VanDerWaalsVolume name="Van der Waals volume" units="m3/kmol" value="0.09019" />
<VanDerWaalsArea name="Van der Waals area" units="m2/kmol" value="1.146E+09" />
<HeatOfFormation name="IG heat of formation" units="J/kmol" value="-2.054E+07" />
<GibbsEnergyOfFormation name="IG Gibbs energy of formation" units="J/kmol" value="1.388E+08" />
<AbsEntropy name="IG absolute entropy" units="J/kmol/K" value="439700" />
<HeatOfFusionAtMeltingPoint name="Heat of fusion at melting point" units="J/kmol" value="1.25E+07" />
<MatthiasCopemanC1 name="Mathias-Copeman C1" units="_" value="1.0374" />
<HeatOfCombustion name="Standard net heat of combustion LHV" units="J/kmol" value="-5.56974E+09" />
<SolidDensity name="Solid density" units="kmol/m3">
  <eqno value="2" />
  <A value="8.6003" />
  <B value="-0.0043101" />
  <C value="0" />
  <D value="0" />
  <E value="0" />
  <Tmin units="K" value="88.68" />
  <Tmax units="K" value="221.7" />
  </SolidDensity>
<LiquidDensity name="Liquid density" units="kmol/m3">
  <eqno value="105" />
  <A value="0.54967" />
  <B value="0.26271" />
  <C value="650" />
  <D value="0.30807" />
  <Tmin units="K" value="221.7" />
  <Tmax units="K" value="627.46" />
  </LiquidDensity>
<VaporPressure name="Vapour pressure" units="Pa">
  <eqno value="101" />
  <A value="97.24209" />
  <B value="-8752.864" />
  <C value="-11.04244" />
  <D value="6.424651E-06" />
  <E value="2" />
  <Tmin units="K" value="221.7" />
  <Tmax units="K" value="650" />
  </VaporPressure>
<HeatOfVaporization name="Heat of vaporization" units="J/kmol">
  <eqno value="106" />
  <A value="6.0838E+07" />
  <B value="0.30052" />
  <C value="0.25612" />
  <D value="-0.19969" />
  <E value="-0.0011249" />
  <Tmin units="K" value="221.7" />
  <Tmax units="K" value="627.46" />
  </HeatOfVaporization>
<SolidHeatCapacityCp name="Solid heat capacity" units="J/kmol/K">
  <eqno value="100" />
  <A value="6990.9" />
  <B value="980.23" />
  <C value="-2.1589" />
  <D value="0.0063245" />
  <E value="-0.0000082806" />
  <Tmin units="K" value="50" />
  <Tmax units="K" value="221.7" />
  </SolidHeatCapacityCp>
<LiquidHeatCapacityCp name="Liquid heat capacity" units="J/kmol/K">
  <eqno value="16" />
  <A value="116150" />
  <B value="-36.608" />
  <C value="10.189" />
  <D value="0.0074074" />
  <E value="-0.0000060747" />
  <Tmin units="K" value="221.7" />
  <Tmax units="K" value="445.94" />
  </LiquidHeatCapacityCp>
<IdealGasHeatCapacityCp name="Ideal gas heat capacity" units="J/kmol/K">
  <eqno value="16" />
  <A value="83364" />
  <B value="-556.41" />
  <C value="13.277" />
  <D value="0.000016037" />
  <E value="-2.0047E-08" />
  <Tmin units="K" value="221.7" />
  <Tmax units="K" value="1500" />
  </IdealGasHeatCapacityCp>
<SecondVirialCoefficient name="Second virial coefficient" units="m3/kmol">
  <eqno value="104" />
  <A value="0.30201" />
  <B value="-383.93" />
  <C value="-94.545" />
  <D value="-4562.5" />
  <E value="-39381" />
  <Tmin units="K" value="325" />
  <Tmax units="K" value="1500" />
  </SecondVirialCoefficient>
<LiquidViscosity name="Liquid viscosity" units="Pa.s">
  <eqno value="101" />
  <A value="-12.546" />
  <B value="1392.5" />
  <C value="0.17362" />
  <D value="-2.3672E-07" />
  <E value="2" />
  <Tmin units="K" value="221.7" />
  <Tmax units="K" value="550" />
  </LiquidViscosity>
<VaporViscosity name="Vapour viscosity" units="Pa.s">
  <eqno value="102" />
  <A value="3.8764E-07" />
  <B value="0.58977" />
  <C value="249.51" />
  <D value="1034.4" />
  <Tmin units="K" value="221.7" />
  <Tmax units="K" value="1000" />
  </VaporViscosity>
<LiquidThermalConductivity name="Liquid thermal conductivity" units="W/m/K">
  <eqno value="16" />
  <A value="-0.033263" />
  <B value="-23.962" />
  <C value="-1.3695" />
  <D value="-0.001338" />
  <E value="-2.5251E-07" />
  <Tmin units="K" value="221.7" />
  <Tmax units="K" value="445.94" />
  </LiquidThermalConductivity>
<VaporThermalConductivity name="Vapour thermal conductivity" units="W/m/K">
  <eqno value="102" />
  <A value="0.000022162" />
  <B value="1.2141" />
  <C value="174.06" />
  <D value="50162" />
  <Tmin units="K" value="221.7" />
  <Tmax units="K" value="1000" />
  </VaporThermalConductivity>
<SurfaceTension name="Surface tension" units="N/m">
  <eqno value="16" />
  <A value="-0.0096431" />
  <B value="44.533" />
  <C value="-3.1993" />
  <D value="0.00043442" />
  <E value="-0.0000043503" />
  <Tmin units="K" value="221.7" />
  <Tmax units="K" value="627.46" />
  </SurfaceTension>
<RPPHeatCapacityCp name="Ideal gas heat capacity (RPP)" units="J/kmol/K">
  <eqno value="4" />
  <A value="-39186" />
  <B value="861.97" />
  <C value="-0.52789" />
  <D value="0.00012235" />
  <Tmin units="K" value="298.15" />
  <Tmax units="K" value="1500" />
  </RPPHeatCapacityCp>
<RelativeStaticPermittivity name="Relative static permittivity" units="_">
  <eqno value="120" />
  <A value="-1.764801" />
  <B value="-1150" />
  <C value="-6.9" />
  <Tmin units="K" value="270.8167" />
  <Tmax units="K" value="440.8167" />
  </RelativeStaticPermittivity>
<AntoineVaporPressure name="Antoine" units="Pa">
  <eqno value="10" />
  <A value="21.694" />
  <B value="4111.8" />
  <C value="-41.494" />
  <Tmin units="K" value="390.04" />
  <Tmax units="K" value="582.37" />
  </AntoineVaporPressure>
<LiquidViscosityRPS name="Liquid viscosity (RPS)" units="Pa.s">
  <eqno value="12" />
  <A value="-2.7768" />
  <B value="-0.013263" />
  <Tmin units="K" value="221.7" />
  <Tmax units="K" value="445.94" />
  </LiquidViscosityRPS>
<COSTALDVolume name="COSTLD characteristic volume (V*)" units="m3/kmol" value="0.495922" />
<DiameterLJ name="Lennard Jones diameter" units="m" value="6.99996E-10" />
<EnergyLJ name="Lennard Jones energy" units="K" value="385.9366" />
<RacketParameter name="Rackett parameter" units="_" value="0.271" />
<FullerVolume name="Fuller et al. diffusion volume" units="_" value="173.04" />
<MatthiasCopemanC2 name="Mathias-Copeman C2" units="_" value="0" />
<Parachor name="Parachor" units="kg0.25.m3/s0.5/kmol" value="0.0641263" />
<SpecificGravity name="Specific gravity" units="_" value="0.857681" />
<Charge name="Charge" units="_" value="0" />
<CostaldAcentricFactor name="SRK acentric factor" units="_" value="0.383" />
<WilsonVolume name="Wilson volume" units="m3/kmol" value="0.15808" />
<UniquacR name="UNIQUAC r" units="_" value="5.9452" />
<UniquacQ name="UNIQUAC q" units="_" value="4.584" />
<ApiSrkS2 name="API-SRK s2" units="_" value="-0.013419" />
<MatthiasCopemanC3 name="Mathias-Copeman C3" units="_" value="0" />
<ChaoSeaderAcentricFactor name="Chao-Seader acentric factor" units="_" value="0.383" />
<ChaoSeaderSolubilityParameter name="Chao-Seader solubility parameter" units="J0.5/m1.5" value="16860" />
<ChaoSeaderLiquidVolume name="Chao-Seader liquid volume" units="m3/kmol" value="0.15808" />
<UnifacVLE name="UNIFAC">
  <group id="1" value="2" />
  <group id="3" value="1" />
  <group id="10" value="5" />
  <group id="13" value="1" />
  </UnifacVLE>
<UnifacLLE name="UNIFAC-LLE">
  <group id="1" value="2" />
  <group id="3" value="1" />
  <group id="9" value="5" />
  <group id="12" value="1" />
  </UnifacLLE>
<Asog name="ASOG">
  <group id="1" value="2" />
  <group id="2" value="1" />
  <group id="3" value="1" />
  <group id="10" value="5" />
  <group id="11" value="1" />
  </Asog>
<GCmethod name="PPR78">
  <group id="1" value="2" />
  <group id="3" value="1" />
  <group id="2" value="1" />
  <group id="7" value="5" />
  <group id="8" value="1" />
  </GCmethod>
<Umr name="UMR">
  <group id="1" value="2" />
  <group id="3" value="1" />
  <group id="10" value="5" />
  <group id="13" value="1" />
  </Umr>
<ModifiedUnifac name="Modified UNIFAC">
  <group id="1" value="2" />
  <group id="3" value="1" />
  <group id="9" value="5" />
  <group id="12" value="1" />
  </ModifiedUnifac>
<CAS name="CAS number" value="538-93-2" />
<Smiles name="SMILES" value="c1(CC(C)C)ccccc1" />
</compound>

