<compound>
<LibraryIndex name="Index" value="4" />
<CompoundID name="Name" value="isobutane" />
<StructureFormula name="Structure" value="CH3CH(CH3)CH3" />
<Family name="Family" value="2" />
<CriticalTemperature name="Critical temperature" units="K" value="407.85" />
<CriticalPressure name="Critical pressure" units="Pa" value="3640000" />
<CriticalVolume name="Critical volume" units="m3/kmol" value="0.2627" />
<CriticalCompressibility name="Critical compressibility factor" units="_" value="0.278" />
<NormalBoilingPointTemperature name="Normal boiling point" units="K" value="261.34" />
<NormalMeltingPointTemperature name="Melting point" units="K" value="113.54" />
<TriplePointTemperature name="Triple point temperature" units="K" value="113.54" />
<TriplePointPressure name="Triple point pressure" units="Pa" value="0.0120622" />
<MolecularWeight name="Molecular weight" units="kg/kmol" value="58.1222" />
<LiquidVolumeAtNormalBoilingPoint name="Liquid molar volume at normal boiling point" units="m3/kmol" value="0.10436" />
<AcentricityFactor name="Acentric factor" units="_" value="0.186" />
<RadiusOfGyration name="Radius of gyration" units="m" value="2.948E-10" />
<SolubilityParameter name="Solubility parameter" units="J0.5/m1.5" value="12560" />
<DipoleMoment name="Dipole moment" units="Coulomb.m" value="4.4E-31" />
<VanDerWaalsVolume name="Van der Waals volume" units="m3/kmol" value="0.04779" />
<VanDerWaalsArea name="Van der Waals area" units="m2/kmol" value="6.93E+08" />
<HeatOfFormation name="IG heat of formation" units="J/kmol" value="-1.3499E+08" />
<GibbsEnergyOfFormation name="IG Gibbs energy of formation" units="J/kmol" value="-2.144E+07" />
<AbsEntropy name="IG absolute entropy" units="J/kmol/K" value="295500" />
<HeatOfFusionAtMeltingPoint name="Heat of fusion at melting point" units="J/kmol" value="4540000" />
<MatthiasCopemanC1 name="Mathias-Copeman C1" units="_" value="0.75157" />
<HeatOfCombustion name="Standard net heat of combustion LHV" units="J/kmol" value="-2.64812E+09" />
<SolidDensity name="Solid density" units="kmol/m3">
  <eqno value="2" />
  <A value="15.956" />
  <B value="-0.015646" />
  <Tmin units="K" value="45.42" />
  <Tmax units="K" value="113.54" />
  </SolidDensity>
<LiquidDensity name="Liquid density" units="kmol/m3">
  <eqno value="105" />
  <A value="0.89934" />
  <B value="0.25371" />
  <C value="407.85" />
  <D value="0.25125" />
  <Tmin units="K" value="113.54" />
  <Tmax units="K" value="407.84" />
  </LiquidDensity>
<VaporPressure name="Vapour pressure" units="Pa">
  <eqno value="101" />
  <A value="70.58866" />
  <B value="-4298.161" />
  <C value="-7.798635" />
  <D value="0.0000116" />
  <E value="2" />
  <Tmin units="K" value="113.54" />
  <Tmax units="K" value="408" />
  </VaporPressure>
<HeatOfVaporization name="Heat of vaporization" units="J/kmol">
  <eqno value="106" />
  <A value="3.4869E+07" />
  <B value="0.64449" />
  <C value="-0.15424" />
  <D value="-0.28822" />
  <E value="0.20982" />
  <Tmin units="K" value="113.54" />
  <Tmax units="K" value="407.8" />
  </HeatOfVaporization>
<SolidHeatCapacityCp name="Solid heat capacity" units="J/kmol/K">
  <eqno value="100" />
  <A value="-58597" />
  <B value="5767.7" />
  <C value="-111.79" />
  <D value="0.90616" />
  <E value="-0.0024065" />
  <Tmin units="K" value="77" />
  <Tmax units="K" value="107" />
  </SolidHeatCapacityCp>
<LiquidHeatCapacityCp name="Liquid heat capacity" units="J/kmol/K">
  <eqno value="16" />
  <A value="89466" />
  <B value="-323.61" />
  <C value="12.827" />
  <D value="-0.010476" />
  <E value="0.000025037" />
  <Tmin units="K" value="113.54" />
  <Tmax units="K" value="380" />
  </LiquidHeatCapacityCp>
<IdealGasHeatCapacityCp name="Ideal gas heat capacity" units="J/kmol/K">
  <eqno value="16" />
  <A value="39746.03" />
  <B value="-371.573" />
  <C value="12.02593" />
  <D value="0.000755039" />
  <E value="-2.59608E-07" />
  <Tmin units="K" value="80" />
  <Tmax units="K" value="1500" />
  </IdealGasHeatCapacityCp>
<SecondVirialCoefficient name="Second virial coefficient" units="m3/kmol">
  <eqno value="104" />
  <A value="0.15963" />
  <B value="-143.05" />
  <C value="-7.3449" />
  <D value="-502.57" />
  <E value="799.28" />
  <Tmin units="K" value="204.07" />
  <Tmax units="K" value="1836.59" />
  </SecondVirialCoefficient>
<LiquidViscosity name="Liquid viscosity" units="Pa.s">
  <eqno value="101" />
  <A value="-39.10125" />
  <B value="1315.145" />
  <C value="4.876982" />
  <D value="-0.0000203993" />
  <E value="2" />
  <Tmin units="K" value="110" />
  <Tmax units="K" value="373" />
  </LiquidViscosity>
<VaporViscosity name="Vapour viscosity" units="Pa.s">
  <eqno value="102" />
  <A value="3.951E-08" />
  <B value="0.90975" />
  <C value="-52.076" />
  <D value="8625.4" />
  <Tmin units="K" value="150" />
  <Tmax units="K" value="1000" />
  </VaporViscosity>
<LiquidThermalConductivity name="Liquid thermal conductivity" units="W/m/K">
  <eqno value="16" />
  <A value="0.029586" />
  <B value="56.323" />
  <C value="-2.8746" />
  <D value="0.0051627" />
  <E value="-0.000017826" />
  <Tmin units="K" value="113.54" />
  <Tmax units="K" value="400" />
  </LiquidThermalConductivity>
<VaporThermalConductivity name="Vapour thermal conductivity" units="W/m/K">
  <eqno value="102" />
  <A value="0.091178" />
  <B value="0.18264" />
  <C value="626.56" />
  <D value="1124600" />
  <Tmin units="K" value="113.54" />
  <Tmax units="K" value="1000" />
  </VaporThermalConductivity>
<SurfaceTension name="Surface tension" units="N/m">
  <eqno value="16" />
  <A value="-0.007942" />
  <B value="27.727" />
  <C value="-3.375" />
  <D value="0.0010263" />
  <E value="-0.000011845" />
  <Tmin units="K" value="113.54" />
  <Tmax units="K" value="407.8" />
  </SurfaceTension>
<RPPHeatCapacityCp name="Ideal gas heat capacity (RPP)" units="J/kmol/K">
  <eqno value="100" />
  <A value="27862" />
  <B value="148.69" />
  <C value="0.45538" />
  <D value="-0.00067339" />
  <E value="2.6964E-07" />
  <Tmin units="K" value="50" />
  <Tmax units="K" value="1000" />
  </RPPHeatCapacityCp>
<AntoineVaporPressure name="Antoine" units="Pa">
  <eqno value="10" />
  <A value="20.913" />
  <B value="2269.9" />
  <C value="-19.458" />
  <Tmin units="K" value="249.82" />
  <Tmax units="K" value="366.48" />
  </AntoineVaporPressure>
<LiquidViscosityRPS name="Liquid viscosity (RPS)" units="Pa.s">
  <eqno value="13" />
  <A value="0.42505" />
  <B value="-0.057646" />
  <C value="0.000091229" />
  <Tmin units="K" value="110" />
  <Tmax units="K" value="310.95" />
  </LiquidViscosityRPS>
<COSTALDVolume name="COSTLD characteristic volume (V*)" units="m3/kmol" value="0.25683" />
<DiameterLJ name="Lennard Jones diameter" units="m" value="5.553216E-10" />
<EnergyLJ name="Lennard Jones energy" units="K" value="265.4452" />
<RacketParameter name="Rackett parameter" units="_" value="0.275" />
<FullerVolume name="Fuller et al. diffusion volume" units="_" value="86.7" />
<MatthiasCopemanC2 name="Mathias-Copeman C2" units="_" value="-0.03973" />
<Parachor name="Parachor" units="kg0.25.m3/s0.5/kmol" value="0.0339" />
<SpecificGravity name="Specific gravity" units="_" value="0.561966" />
<Charge name="Charge" units="_" value="0" />
<CostaldAcentricFactor name="SRK acentric factor" units="_" value="0.1825" />
<WilsonVolume name="Wilson volume" units="m3/kmol" value="0.105238" />
<UniquacR name="UNIQUAC r" units="_" value="3.1502" />
<UniquacQ name="UNIQUAC q" units="_" value="2.772" />
<UniquacQP name="UNIQUAC q'" units="_" value="2.772" />
<ApiSrkS2 name="API-SRK s2" units="_" value="0.006209" />
<MatthiasCopemanC3 name="Mathias-Copeman C3" units="_" value="0.18616" />
<ChaoSeaderAcentricFactor name="Chao-Seader acentric factor" units="_" value="0.1825" />
<ChaoSeaderSolubilityParameter name="Chao-Seader solubility parameter" units="J0.5/m1.5" value="13766.21" />
<ChaoSeaderLiquidVolume name="Chao-Seader liquid volume" units="m3/kmol" value="0.1055" />
<UnifacVLE name="UNIFAC">
  <group id="1" value="3" />
  <group id="3" value="1" />
  </UnifacVLE>
<UnifacLLE name="UNIFAC-LLE">
  <group id="1" value="3" />
  <group id="3" value="1" />
  </UnifacLLE>
<Asog name="ASOG">
  <group id="1" value="3" />
  <group id="3" value="1" />
  </Asog>
<GCmethod name="PPR78">
  <group id="1" value="3" />
  <group id="3" value="1" />
  </GCmethod>
<Umr name="UMR">
  <group id="1" value="3" />
  <group id="3" value="1" />
  </Umr>
<ModifiedUnifac name="Modified UNIFAC">
  <group id="1" value="3" />
  <group id="3" value="1" />
  </ModifiedUnifac>
<CAS name="CAS number" value="75-28-5" />
<Smiles name="SMILES" value="CC(C)C" />
</compound>

