<compound>
<LibraryIndex name="Index" value="207" />
<CompoundID name="Name" value="isobutene" />
<StructureFormula name="Structure" value="CH2C(CH3)2" />
<Family name="Family" value="11" />
<CriticalTemperature name="Critical temperature" units="K" value="417.9" />
<CriticalPressure name="Critical pressure" units="Pa" value="4000000" />
<CriticalVolume name="Critical volume" units="m3/kmol" value="0.2388" />
<CriticalCompressibility name="Critical compressibility factor" units="_" value="0.275" />
<NormalBoilingPointTemperature name="Normal boiling point" units="K" value="266.24" />
<NormalMeltingPointTemperature name="Melting point" units="K" value="132.81" />
<TriplePointTemperature name="Triple point temperature" units="K" value="132.81" />
<TriplePointPressure name="Triple point pressure" units="Pa" value="0.644929" />
<MolecularWeight name="Molecular weight" units="kg/kmol" value="56.10632" />
<LiquidVolumeAtNormalBoilingPoint name="Liquid molar volume at normal boiling point" units="m3/kmol" value="0.09524" />
<AcentricityFactor name="Acentric factor" units="_" value="0.2" />
<RadiusOfGyration name="Radius of gyration" units="m" value="2.875E-10" />
<SolubilityParameter name="Solubility parameter" units="J0.5/m1.5" value="13660" />
<DipoleMoment name="Dipole moment" units="Coulomb.m" value="1.67E-30" />
<VanDerWaalsVolume name="Van der Waals volume" units="m3/kmol" value="0.04429" />
<VanDerWaalsArea name="Van der Waals area" units="m2/kmol" value="6.71E+08" />
<HeatOfFormation name="IG heat of formation" units="J/kmol" value="-1.71E+07" />
<GibbsEnergyOfFormation name="IG Gibbs energy of formation" units="J/kmol" value="5.808E+07" />
<AbsEntropy name="IG absolute entropy" units="J/kmol/K" value="293090" />
<HeatOfFusionAtMeltingPoint name="Heat of fusion at melting point" units="J/kmol" value="5931200" />
<MatthiasCopemanC1 name="Mathias-Copeman C1" units="_" value="0.60897" />
<HeatOfCombustion name="Standard net heat of combustion LHV" units="J/kmol" value="-2.5242E+09" />
<SolidDensity name="Solid density" units="kmol/m3">
  <eqno value="2" />
  <A value="17.138" />
  <B value="-0.014341" />
  <Tmin units="K" value="53.12" />
  <Tmax units="K" value="132.81" />
  </SolidDensity>
<LiquidDensity name="Liquid density" units="kmol/m3">
  <eqno value="105" />
  <A value="1.01" />
  <B value="0.25611" />
  <C value="417.9" />
  <D value="0.2642" />
  <Tmin units="K" value="132.81" />
  <Tmax units="K" value="417.9" />
  </LiquidDensity>
<VaporPressure name="Vapour pressure" units="Pa">
  <eqno value="101" />
  <A value="47.13879" />
  <B value="-3682.162" />
  <C value="-3.952514" />
  <D value="4.044185E-06" />
  <E value="2" />
  <Tmin units="K" value="132.81" />
  <Tmax units="K" value="417.9" />
  </VaporPressure>
<HeatOfVaporization name="Heat of vaporization" units="J/kmol">
  <eqno value="106" />
  <A value="3.916E+07" />
  <B value="1.1638" />
  <C value="-1.4033" />
  <D value="0.81203" />
  <E value="-0.13521" />
  <Tmin units="K" value="132.81" />
  <Tmax units="K" value="417.9" />
  </HeatOfVaporization>
<SolidHeatCapacityCp name="Solid heat capacity" units="J/kmol/K">
  <eqno value="100" />
  <A value="34336" />
  <B value="57.654" />
  <C value="2.3469" />
  <D value="-0.0024921" />
  <E value="0.0000076414" />
  <Tmin units="K" value="80" />
  <Tmax units="K" value="130" />
  </SolidHeatCapacityCp>
<LiquidHeatCapacityCp name="Liquid heat capacity" units="J/kmol/K">
  <eqno value="16" />
  <A value="95317" />
  <B value="-68.58" />
  <C value="9.3268" />
  <D value="0.0023434" />
  <E value="0.0000076824" />
  <Tmin units="K" value="132.81" />
  <Tmax units="K" value="343.15" />
  </LiquidHeatCapacityCp>
<IdealGasHeatCapacityCp name="Ideal gas heat capacity" units="J/kmol/K">
  <eqno value="16" />
  <A value="49784" />
  <B value="-472.84" />
  <C value="12.012" />
  <D value="0.00052863" />
  <E value="-1.7772E-07" />
  <Tmin units="K" value="150" />
  <Tmax units="K" value="1500" />
  </IdealGasHeatCapacityCp>
<SecondVirialCoefficient name="Second virial coefficient" units="m3/kmol">
  <eqno value="104" />
  <A value="0.14292" />
  <B value="-112.61" />
  <C value="-10.11" />
  <D value="-321.37" />
  <E value="359.29" />
  <Tmin units="K" value="194" />
  <Tmax units="K" value="1880.5" />
  </SecondVirialCoefficient>
<LiquidViscosity name="Liquid viscosity" units="Pa.s">
  <eqno value="101" />
  <A value="-12.717" />
  <B value="644.93" />
  <C value="0.3696" />
  <D value="-0.0000023983" />
  <E value="2" />
  <Tmin units="K" value="132.81" />
  <Tmax units="K" value="400" />
  </LiquidViscosity>
<VaporViscosity name="Vapour viscosity" units="Pa.s">
  <eqno value="102" />
  <A value="0.0000028839" />
  <B value="0.33897" />
  <C value="365.04" />
  <D value="17752" />
  <Tmin units="K" value="132.81" />
  <Tmax units="K" value="1000" />
  </VaporViscosity>
<LiquidThermalConductivity name="Liquid thermal conductivity" units="W/m/K">
  <eqno value="16" />
  <A value="0.061493" />
  <B value="33.335" />
  <C value="-2.4686" />
  <D value="0.0041425" />
  <E value="-0.000023609" />
  <Tmin units="K" value="132.81" />
  <Tmax units="K" value="395.2" />
  </LiquidThermalConductivity>
<VaporThermalConductivity name="Vapour thermal conductivity" units="W/m/K">
  <eqno value="102" />
  <A value="-418.21" />
  <B value="0.91306" />
  <C value="-1.5105E+09" />
  <D value="3.1789E+10" />
  <Tmin units="K" value="132.81" />
  <Tmax units="K" value="1000" />
  </VaporThermalConductivity>
<SurfaceTension name="Surface tension" units="N/m">
  <eqno value="16" />
  <A value="-0.0085717" />
  <B value="38.109" />
  <C value="-3.4301" />
  <D value="0.0015866" />
  <E value="-0.000012058" />
  <Tmin units="K" value="132.81" />
  <Tmax units="K" value="417.9" />
  </SurfaceTension>
<RPPHeatCapacityCp name="Ideal gas heat capacity (RPP)" units="J/kmol/K">
  <eqno value="100" />
  <A value="26864" />
  <B value="174.18" />
  <C value="0.19231" />
  <D value="-0.00032834" />
  <E value="0.0000001302" />
  <Tmin units="K" value="50" />
  <Tmax units="K" value="1000" />
  </RPPHeatCapacityCp>
<AntoineVaporPressure name="Antoine" units="Pa">
  <eqno value="10" />
  <A value="21.012" />
  <B value="2312" />
  <C value="-22.509" />
  <Tmin units="K" value="250.95" />
  <Tmax units="K" value="373.15" />
  </AntoineVaporPressure>
<LiquidViscosityRPS name="Liquid viscosity (RPS)" units="Pa.s">
  <eqno value="13" />
  <A value="-2.049" />
  <B value="-0.038545" />
  <C value="0.000054221" />
  <Tmin units="K" value="132.81" />
  <Tmax units="K" value="343.15" />
  </LiquidViscosityRPS>
<COSTALDVolume name="COSTLD characteristic volume (V*)" units="m3/kmol" value="0.2369" />
<DiameterLJ name="Lennard Jones diameter" units="m" value="5.449925E-10" />
<EnergyLJ name="Lennard Jones energy" units="K" value="261.5672" />
<RacketParameter name="Rackett parameter" units="_" value="0.2727" />
<FullerVolume name="Fuller et al. diffusion volume" units="_" value="82.08" />
<MatthiasCopemanC2 name="Mathias-Copeman C2" units="_" value="1.044" />
<Parachor name="Parachor" units="kg0.25.m3/s0.5/kmol" value="0.0318" />
<SpecificGravity name="Specific gravity" units="_" value="0.592793" />
<Charge name="Charge" units="_" value="0" />
<CostaldAcentricFactor name="SRK acentric factor" units="_" value="0.19584" />
<WilsonVolume name="Wilson volume" units="m3/kmol" value="0.0953727" />
<UniquacR name="UNIQUAC r" units="_" value="2.9195" />
<UniquacQ name="UNIQUAC q" units="_" value="2.684" />
<UniquacQP name="UNIQUAC q'" units="_" value="2.684" />
<ApiSrkS2 name="API-SRK s2" units="_" value="0.000612" />
<MatthiasCopemanC3 name="Mathias-Copeman C3" units="_" value="-2.20386" />
<ChaoSeaderAcentricFactor name="Chao-Seader acentric factor" units="_" value="0.1951" />
<ChaoSeaderSolubilityParameter name="Chao-Seader solubility parameter" units="J0.5/m1.5" value="13659.3" />
<ChaoSeaderLiquidVolume name="Chao-Seader liquid volume" units="m3/kmol" value="0.0953727" />
<UnifacVLE name="UNIFAC">
  <group id="1" value="2" />
  <group id="7" value="1" />
  </UnifacVLE>
<UnifacLLE name="UNIFAC-LLE">
  <group id="1" value="2" />
  <group id="8" value="1" />
  </UnifacLLE>
<Asog name="ASOG">
  <group id="1" value="2" />
  <group id="7" value="1" />
  </Asog>
<GCmethod name="PPR78">
  <group id="1" value="2" />
  <group id="2" value="1" />
  <group id="19" value="1" />
  </GCmethod>
<Umr name="UMR">
  <group id="1" value="2" />
  <group id="7" value="1" />
  </Umr>
<ModifiedUnifac name="Modified UNIFAC">
  <group id="1" value="2" />
  <group id="7" value="1" />
  </ModifiedUnifac>
<CAS name="CAS number" value="115-11-7" />
<Smiles name="SMILES" value="C=C(C)C" />
</compound>

