<compound>
<LibraryIndex name="Index" value="8" />
<CompoundID name="Name" value="isopentane" />
<StructureFormula name="Structure" value="CH3CH(CH3)CH2CH3" />
<Family name="Family" value="2" />
<CriticalTemperature name="Critical temperature" units="K" value="460.39" />
<CriticalPressure name="Critical pressure" units="Pa" value="3381000" />
<CriticalVolume name="Critical volume" units="m3/kmol" value="0.3083" />
<CriticalCompressibility name="Critical compressibility factor" units="_" value="0.272" />
<NormalBoilingPointTemperature name="Normal boiling point" units="K" value="300.99" />
<NormalMeltingPointTemperature name="Melting point" units="K" value="113.25" />
<TriplePointTemperature name="Triple point temperature" units="K" value="113.25" />
<TriplePointPressure name="Triple point pressure" units="Pa" value="0.00012144" />
<MolecularWeight name="Molecular weight" units="kg/kmol" value="72.14878" />
<LiquidVolumeAtNormalBoilingPoint name="Liquid molar volume at normal boiling point" units="m3/kmol" value="0.11646" />
<AcentricityFactor name="Acentric factor" units="_" value="0.229" />
<RadiusOfGyration name="Radius of gyration" units="m" value="3.324E-10" />
<SolubilityParameter name="Solubility parameter" units="J0.5/m1.5" value="13870" />
<DipoleMoment name="Dipole moment" units="Coulomb.m" value="4.34E-31" />
<VanDerWaalsVolume name="Van der Waals volume" units="m3/kmol" value="0.05802" />
<VanDerWaalsArea name="Van der Waals area" units="m2/kmol" value="8.28E+08" />
<HeatOfFormation name="IG heat of formation" units="J/kmol" value="-1.537E+08" />
<GibbsEnergyOfFormation name="IG Gibbs energy of formation" units="J/kmol" value="-1.405E+07" />
<AbsEntropy name="IG absolute entropy" units="J/kmol/K" value="343740" />
<HeatOfFusionAtMeltingPoint name="Heat of fusion at melting point" units="J/kmol" value="5150000" />
<MatthiasCopemanC1 name="Mathias-Copeman C1" units="_" value="0.88771" />
<HeatOfCombustion name="Standard net heat of combustion LHV" units="J/kmol" value="-3.23954E+09" />
<SolidDensity name="Solid density" units="kmol/m3">
  <eqno value="2" />
  <A value="13.656" />
  <B value="-0.013374" />
  <Tmin units="K" value="45.3" />
  <Tmax units="K" value="113.25" />
  </SolidDensity>
<LiquidDensity name="Liquid density" units="kmol/m3">
  <eqno value="105" />
  <A value="0.73194" />
  <B value="0.24835" />
  <C value="460.99" />
  <D value="0.25733" />
  <Tmin units="K" value="113.15" />
  <Tmax units="K" value="460.98" />
  </LiquidDensity>
<VaporPressure name="Vapour pressure" units="Pa">
  <eqno value="101" />
  <A value="71.04288" />
  <B value="-4967.235" />
  <C value="-7.674379" />
  <D value="8.659929E-06" />
  <E value="2" />
  <Tmin units="K" value="113.25" />
  <Tmax units="K" value="460.4" />
  </VaporPressure>
<HeatOfVaporization name="Heat of vaporization" units="J/kmol">
  <eqno value="106" />
  <A value="4.14248E+07" />
  <B value="0.799342" />
  <C value="-0.581969" />
  <D value="0.0834724" />
  <E value="0.117826" />
  <Tmin units="K" value="113.25" />
  <Tmax units="K" value="460.4" />
  </HeatOfVaporization>
<SolidHeatCapacityCp name="Solid heat capacity" units="J/kmol/K">
  <eqno value="100" />
  <A value="-9226.8" />
  <B value="944.22" />
  <C value="12.156" />
  <D value="-0.25376" />
  <E value="0.0012526" />
  <Tmin units="K" value="13" />
  <Tmax units="K" value="113.36" />
  </SolidHeatCapacityCp>
<LiquidHeatCapacityCp name="Liquid heat capacity" units="J/kmol/K">
  <eqno value="16" />
  <A value="112460" />
  <B value="-54.259" />
  <C value="8.8747" />
  <D value="0.0083911" />
  <E value="-0.0000034773" />
  <Tmin units="K" value="113.25" />
  <Tmax units="K" value="310" />
  </LiquidHeatCapacityCp>
<IdealGasHeatCapacityCp name="Ideal gas heat capacity" units="J/kmol/K">
  <eqno value="16" />
  <A value="59843" />
  <B value="-493.27" />
  <C value="12.516" />
  <D value="0.00046099" />
  <E value="-1.5305E-07" />
  <Tmin units="K" value="200" />
  <Tmax units="K" value="1500" />
  </IdealGasHeatCapacityCp>
<SecondVirialCoefficient name="Second virial coefficient" units="m3/kmol">
  <eqno value="104" />
  <A value="0.16392" />
  <B value="-173.55" />
  <C value="-19.026" />
  <D value="1021.5" />
  <E value="-2755.1" />
  <Tmin units="K" value="230.2" />
  <Tmax units="K" value="1841.56" />
  </SecondVirialCoefficient>
<LiquidViscosity name="Liquid viscosity" units="Pa.s">
  <eqno value="101" />
  <A value="-12.596" />
  <B value="889.14" />
  <C value="0.20472" />
  <D value="4.0592E-09" />
  <E value="2" />
  <Tmin units="K" value="150" />
  <Tmax units="K" value="360" />
  </LiquidViscosity>
<VaporViscosity name="Vapour viscosity" units="Pa.s">
  <eqno value="102" />
  <A value="6.6346E-08" />
  <B value="0.82828" />
  <C value="-68.082" />
  <D value="25303" />
  <Tmin units="K" value="150" />
  <Tmax units="K" value="1000" />
  </VaporViscosity>
<LiquidThermalConductivity name="Liquid thermal conductivity" units="W/m/K">
  <eqno value="16" />
  <A value="0.061061" />
  <B value="89.857" />
  <C value="-3.522" />
  <D value="0.0075154" />
  <E value="-0.000023032" />
  <Tmin units="K" value="113.25" />
  <Tmax units="K" value="368.13" />
  </LiquidThermalConductivity>
<VaporThermalConductivity name="Vapour thermal conductivity" units="W/m/K">
  <eqno value="102" />
  <A value="0.00090019" />
  <B value="0.7738" />
  <C value="456.82" />
  <D value="231390" />
  <Tmin units="K" value="113.25" />
  <Tmax units="K" value="1000" />
  </VaporThermalConductivity>
<SurfaceTension name="Surface tension" units="N/m">
  <eqno value="16" />
  <A value="-0.014311" />
  <B value="8.316" />
  <C value="-2.8974" />
  <D value="-0.00090151" />
  <E value="-0.0000046238" />
  <Tmin units="K" value="113.25" />
  <Tmax units="K" value="442.13" />
  </SurfaceTension>
<RPPHeatCapacityCp name="Ideal gas heat capacity (RPP)" units="J/kmol/K">
  <eqno value="100" />
  <A value="16288" />
  <B value="317.54" />
  <C value="0.20237" />
  <D value="-0.00043027" />
  <E value="1.8001E-07" />
  <Tmin units="K" value="200" />
  <Tmax units="K" value="1000" />
  </RPPHeatCapacityCp>
<RelativeStaticPermittivity name="Relative static permittivity" units="_">
  <eqno value="120" />
  <A value="-1.366" />
  <B value="-925" />
  <C value="-5.55" />
  <Tmin units="K" value="275" />
  <Tmax units="K" value="445" />
  </RelativeStaticPermittivity>
<AntoineVaporPressure name="Antoine" units="Pa">
  <eqno value="10" />
  <A value="20.89" />
  <B value="2541.9" />
  <C value="-29.563" />
  <Tmin units="K" value="276.92" />
  <Tmax units="K" value="410" />
  </AntoineVaporPressure>
<LiquidViscosityRPS name="Liquid viscosity (RPS)" units="Pa.s">
  <eqno value="13" />
  <A value="0.49033" />
  <B value="-0.05312" />
  <C value="0.00007775" />
  <Tmin units="K" value="150" />
  <Tmax units="K" value="310" />
  </LiquidViscosityRPS>
<COSTALDVolume name="COSTLD characteristic volume (V*)" units="m3/kmol" value="0.30959" />
<DiameterLJ name="Lennard Jones diameter" units="m" value="6.012938E-10" />
<EnergyLJ name="Lennard Jones energy" units="K" value="277.0048" />
<RacketParameter name="Rackett parameter" units="_" value="0.2716" />
<FullerVolume name="Fuller et al. diffusion volume" units="_" value="107.22" />
<MatthiasCopemanC2 name="Mathias-Copeman C2" units="_" value="-0.50468" />
<Parachor name="Parachor" units="kg0.25.m3/s0.5/kmol" value="0.0408" />
<SpecificGravity name="Specific gravity" units="_" value="0.623442" />
<Charge name="Charge" units="_" value="0" />
<CostaldAcentricFactor name="SRK acentric factor" units="_" value="0.23995" />
<WilsonVolume name="Wilson volume" units="m3/kmol" value="0.117098" />
<UniquacR name="UNIQUAC r" units="_" value="3.82" />
<UniquacQ name="UNIQUAC q" units="_" value="3.31" />
<ApiSrkS2 name="API-SRK s2" units="_" value="-0.005345" />
<MatthiasCopemanC3 name="Mathias-Copeman C3" units="_" value="0.94255" />
<ChaoSeaderAcentricFactor name="Chao-Seader acentric factor" units="_" value="0.2104" />
<ChaoSeaderSolubilityParameter name="Chao-Seader solubility parameter" units="J0.5/m1.5" value="14359.41" />
<ChaoSeaderLiquidVolume name="Chao-Seader liquid volume" units="m3/kmol" value="0.1174" />
<UnifacVLE name="UNIFAC">
  <group id="1" value="3" />
  <group id="2" value="1" />
  <group id="3" value="1" />
  </UnifacVLE>
<UnifacLLE name="UNIFAC-LLE">
  <group id="1" value="3" />
  <group id="2" value="1" />
  <group id="3" value="1" />
  </UnifacLLE>
<Asog name="ASOG">
  <group id="1" value="3" />
  <group id="2" value="1" />
  <group id="3" value="1" />
  </Asog>
<GCmethod name="PPR78">
  <group id="1" value="3" />
  <group id="2" value="1" />
  <group id="3" value="1" />
  </GCmethod>
<Umr name="UMR">
  <group id="1" value="3" />
  <group id="2" value="1" />
  <group id="3" value="1" />
  </Umr>
<ModifiedUnifac name="Modified UNIFAC">
  <group id="1" value="3" />
  <group id="2" value="1" />
  <group id="3" value="1" />
  </ModifiedUnifac>
<CAS name="CAS number" value="78-78-4" />
<Smiles name="SMILES" value="CC(C)CC" />
</compound>

