<compound>
<LibraryIndex name="Index" value="1100" />
<CompoundID name="Name" value="ketene" />
<StructureFormula name="Structure" value="CH2CO" />
<Family name="Family" value="26" />
<CriticalTemperature name="Critical temperature" units="K" value="370" />
<CriticalPressure name="Critical pressure" units="Pa" value="5810000" />
<CriticalVolume name="Critical volume" units="m3/kmol" value="0.144" />
<CriticalCompressibility name="Critical compressibility factor" units="_" value="0.272" />
<NormalBoilingPointTemperature name="Normal boiling point" units="K" value="217.15" />
<NormalMeltingPointTemperature name="Melting point" units="K" value="122.15" />
<TriplePointTemperature name="Triple point temperature" units="K" value="122" />
<TriplePointPressure name="Triple point pressure" units="Pa" value="7.19493" />
<MolecularWeight name="Molecular weight" units="kg/kmol" value="42.03668" />
<LiquidVolumeAtNormalBoilingPoint name="Liquid molar volume at normal boiling point" units="m3/kmol" value="0.06374" />
<AcentricityFactor name="Acentric factor" units="_" value="0.125656" />
<RadiusOfGyration name="Radius of gyration" units="m" value="1.605E-10" />
<SolubilityParameter name="Solubility parameter" units="J0.5/m1.5" value="13820" />
<DipoleMoment name="Dipole moment" units="Coulomb.m" value="4.74E-30" />
<VanDerWaalsVolume name="Van der Waals volume" units="m3/kmol" value="0.02571" />
<VanDerWaalsArea name="Van der Waals area" units="m2/kmol" value="4.02733E+08" />
<HeatOfFormation name="IG heat of formation" units="J/kmol" value="-6.11E+07" />
<GibbsEnergyOfFormation name="IG Gibbs energy of formation" units="J/kmol" value="-6.02914E+07" />
<AbsEntropy name="IG absolute entropy" units="J/kmol/K" value="241800" />
<HeatOfFusionAtMeltingPoint name="Heat of fusion at melting point" units="J/kmol" value="0" />
<HeatOfCombustion name="Standard net heat of combustion LHV" units="J/kmol" value="-9.67759E+08" />
<SolidDensity name="Solid density" units="kmol/m3">
  <eqno value="2" />
  <A value="28.127" />
  <B value="-0.025457" />
  <C value="0" />
  <D value="0" />
  <E value="0" />
  <Tmin units="K" value="48.8" />
  <Tmax units="K" value="122" />
  </SolidDensity>
<LiquidDensity name="Liquid density" units="kmol/m3">
  <eqno value="105" />
  <A value="1.8886" />
  <B value="0.272" />
  <C value="370" />
  <D value="0.28571" />
  <Tmin units="K" value="122" />
  <Tmax units="K" value="370" />
  </LiquidDensity>
<VaporPressure name="Vapour pressure" units="Pa">
  <eqno value="101" />
  <A value="58.628" />
  <B value="-3467" />
  <C value="-5.9337" />
  <D value="0.000010248" />
  <E value="2" />
  <Tmin units="K" value="122" />
  <Tmax units="K" value="370" />
  </VaporPressure>
<HeatOfVaporization name="Heat of vaporization" units="J/kmol">
  <eqno value="106" />
  <A value="4.6158E+07" />
  <B value="4.5264" />
  <C value="-12.408" />
  <D value="14.257" />
  <E value="-5.881" />
  <Tmin units="K" value="122" />
  <Tmax units="K" value="356.95" />
  </HeatOfVaporization>
<LiquidHeatCapacityCp name="Liquid heat capacity" units="J/kmol/K">
  <eqno value="16" />
  <A value="41971" />
  <B value="267.01" />
  <C value="4.7755" />
  <D value="0.029953" />
  <E value="-0.000037749" />
  <Tmin units="K" value="162.53" />
  <Tmax units="K" value="277.5" />
  </LiquidHeatCapacityCp>
<IdealGasHeatCapacityCp name="Ideal gas heat capacity" units="J/kmol/K">
  <eqno value="16" />
  <A value="33110" />
  <B value="-414.32" />
  <C value="10.968" />
  <D value="0.00041237" />
  <E value="-1.3222E-07" />
  <Tmin units="K" value="150" />
  <Tmax units="K" value="1500" />
  </IdealGasHeatCapacityCp>
<SecondVirialCoefficient name="Second virial coefficient" units="m3/kmol">
  <eqno value="104" />
  <A value="0.084441" />
  <B value="-73.911" />
  <C value="-3.4543" />
  <D value="-184.05" />
  <E value="165.87" />
  <Tmin units="K" value="185" />
  <Tmax units="K" value="1845" />
  </SecondVirialCoefficient>
<LiquidViscosity name="Liquid viscosity" units="Pa.s">
  <eqno value="101" />
  <A value="-18.659" />
  <B value="731.69" />
  <C value="1.5497" />
  <D value="-0.000011288" />
  <E value="2" />
  <Tmin units="K" value="120" />
  <Tmax units="K" value="293" />
  </LiquidViscosity>
<VaporViscosity name="Vapour viscosity" units="Pa.s">
  <eqno value="102" />
  <A value="0.000001285" />
  <B value="0.50552" />
  <C value="367.45" />
  <D value="-2188.3" />
  <Tmin units="K" value="122" />
  <Tmax units="K" value="1000" />
  </VaporViscosity>
<LiquidThermalConductivity name="Liquid thermal conductivity" units="W/m/K">
  <eqno value="16" />
  <A value="-0.007072" />
  <B value="-11.763" />
  <C value="-0.74777" />
  <D value="-0.0024777" />
  <E value="-0.0000018714" />
  <Tmin units="K" value="122" />
  <Tmax units="K" value="223.33" />
  </LiquidThermalConductivity>
<VaporThermalConductivity name="Vapour thermal conductivity" units="W/m/K">
  <eqno value="102" />
  <A value="0.000028519" />
  <B value="1.1477" />
  <C value="-97.436" />
  <D value="37387" />
  <Tmin units="K" value="122" />
  <Tmax units="K" value="1000" />
  </VaporThermalConductivity>
<SurfaceTension name="Surface tension" units="N/m">
  <eqno value="16" />
  <A value="-0.0092911" />
  <B value="36.086" />
  <C value="-3.4694" />
  <D value="0.0016382" />
  <E value="-0.000014409" />
  <Tmin units="K" value="122" />
  <Tmax units="K" value="356.95" />
  </SurfaceTension>
<RPPHeatCapacityCp name="Ideal gas heat capacity (RPP)" units="J/kmol/K">
  <eqno value="4" />
  <A value="21695" />
  <B value="109.1" />
  <C value="-0.059305" />
  <D value="0.000012442" />
  <Tmin units="K" value="150" />
  <Tmax units="K" value="1500" />
  </RPPHeatCapacityCp>
<AntoineVaporPressure name="Antoine" units="Pa">
  <eqno value="10" />
  <A value="21.165" />
  <B value="1969.1" />
  <C value="-19.227" />
  <Tmin units="K" value="223" />
  <Tmax units="K" value="330.84" />
  </AntoineVaporPressure>
<LiquidViscosityRPS name="Liquid viscosity (RPS)" units="Pa.s">
  <eqno value="12" />
  <A value="-3.0718" />
  <B value="-0.020835" />
  <Tmin units="K" value="120" />
  <Tmax units="K" value="223.33" />
  </LiquidViscosityRPS>
<COSTALDVolume name="COSTLD characteristic volume (V*)" units="m3/kmol" value="0.136385" />
<DiameterLJ name="Lennard Jones diameter" units="m" value="4.665338E-10" />
<EnergyLJ name="Lennard Jones energy" units="K" value="222.6194" />
<RacketParameter name="Rackett parameter" units="_" value="0.272" />
<Parachor name="Parachor" units="kg0.25.m3/s0.5/kmol" value="0.0190563" />
<SpecificGravity name="Specific gravity" units="_" value="0.678908" />
<Charge name="Charge" units="_" value="0" />
<CostaldAcentricFactor name="SRK acentric factor" units="_" value="0.125656" />
<WilsonVolume name="Wilson volume" units="m3/kmol" value="0.06374" />
<UniquacR name="UNIQUAC r" units="_" value="1.694792" />
<UniquacQ name="UNIQUAC q" units="_" value="1.610932" />
<ChaoSeaderAcentricFactor name="Chao-Seader acentric factor" units="_" value="0.125656" />
<ChaoSeaderSolubilityParameter name="Chao-Seader solubility parameter" units="J0.5/m1.5" value="13820" />
<ChaoSeaderLiquidVolume name="Chao-Seader liquid volume" units="m3/kmol" value="0.06374" />
<CAS name="CAS number" value="463-51-4" />
<Smiles name="SMILES" value="C=C=O" />
</compound>

