<compound>
<LibraryIndex name="Index" value="526" />
<CompoundID name="Name" value="m-diethylbenzene" />
<StructureFormula name="Structure" value="CH3CH2(C6H4)CH2CH3" />
<Family name="Family" value="17" />
<CriticalTemperature name="Critical temperature" units="K" value="663" />
<CriticalPressure name="Critical pressure" units="Pa" value="2880000" />
<CriticalVolume name="Critical volume" units="m3/kmol" value="0.488" />
<CriticalCompressibility name="Critical compressibility factor" units="_" value="0.255" />
<NormalBoilingPointTemperature name="Normal boiling point" units="K" value="454.252" />
<NormalMeltingPointTemperature name="Melting point" units="K" value="189.23" />
<TriplePointTemperature name="Triple point temperature" units="K" value="189.259" />
<TriplePointPressure name="Triple point pressure" units="Pa" value="0.000664991" />
<MolecularWeight name="Molecular weight" units="kg/kmol" value="134.2182" />
<LiquidVolumeAtNormalBoilingPoint name="Liquid molar volume at normal boiling point" units="m3/kmol" value="0.156083" />
<AcentricityFactor name="Acentric factor" units="_" value="0.354019" />
<RadiusOfGyration name="Radius of gyration" units="m" value="4.742E-10" />
<SolubilityParameter name="Solubility parameter" units="J0.5/m1.5" value="17460" />
<DipoleMoment name="Dipole moment" units="Coulomb.m" value="1.2E-30" />
<VanDerWaalsVolume name="Van der Waals volume" units="m3/kmol" value="0.0911199" />
<VanDerWaalsArea name="Van der Waals area" units="m2/kmol" value="1.154E+09" />
<HeatOfFormation name="IG heat of formation" units="J/kmol" value="-2.18E+07" />
<GibbsEnergyOfFormation name="IG Gibbs energy of formation" units="J/kmol" value="1.367E+08" />
<AbsEntropy name="IG absolute entropy" units="J/kmol/K" value="439500" />
<HeatOfFusionAtMeltingPoint name="Heat of fusion at melting point" units="J/kmol" value="1.097E+07" />
<MatthiasCopemanC1 name="Mathias-Copeman C1" units="_" value="1.07091" />
<HeatOfCombustion name="Standard net heat of combustion LHV" units="J/kmol" value="-5.5546E+09" />
<SolidDensity name="Solid density" units="kmol/m3">
  <eqno value="2" />
  <A value="8.9123" />
  <B value="-0.0052595" />
  <C value="0" />
  <D value="0" />
  <E value="0" />
  <Tmin units="K" value="75.7" />
  <Tmax units="K" value="189.26" />
  </SolidDensity>
<LiquidDensity name="Liquid density" units="kmol/m3">
  <eqno value="105" />
  <A value="0.52578" />
  <B value="0.25663" />
  <C value="663" />
  <D value="0.2955" />
  <Tmin units="K" value="189.26" />
  <Tmax units="K" value="638.07" />
  </LiquidDensity>
<VaporPressure name="Vapour pressure" units="Pa">
  <eqno value="101" />
  <A value="153.5552" />
  <B value="-11090.88" />
  <C value="-19.79091" />
  <D value="0.000016846" />
  <E value="2" />
  <Tmin units="K" value="189.26" />
  <Tmax units="K" value="663" />
  </VaporPressure>
<HeatOfVaporization name="Heat of vaporization" units="J/kmol">
  <eqno value="106" />
  <A value="6.460804E+07" />
  <B value="0.433681" />
  <C value="-0.0244308" />
  <D value="0.0154888" />
  <E value="-0.0245419" />
  <Tmin units="K" value="189.26" />
  <Tmax units="K" value="638.07" />
  </HeatOfVaporization>
<SolidHeatCapacityCp name="Solid heat capacity" units="J/kmol/K">
  <eqno value="1" />
  <A value="214740" />
  <Tmin units="K" value="0" />
  <Tmax units="K" value="663" />
  </SolidHeatCapacityCp>
<LiquidHeatCapacityCp name="Liquid heat capacity" units="J/kmol/K">
  <eqno value="16" />
  <A value="-15019" />
  <B value="20.098" />
  <C value="11.35" />
  <D value="0.0044704" />
  <E value="-0.0000034473" />
  <Tmin units="K" value="189.26" />
  <Tmax units="K" value="454.29" />
  </LiquidHeatCapacityCp>
<IdealGasHeatCapacityCp name="Ideal gas heat capacity" units="J/kmol/K">
  <eqno value="16" />
  <A value="115660" />
  <B value="-734.22" />
  <C value="13.598" />
  <D value="-0.00034186" />
  <E value="8.9326E-08" />
  <Tmin units="K" value="200" />
  <Tmax units="K" value="1500" />
  </IdealGasHeatCapacityCp>
<SecondVirialCoefficient name="Second virial coefficient" units="m3/kmol">
  <eqno value="104" />
  <A value="0.31772" />
  <B value="-425.84" />
  <C value="-99.203" />
  <D value="-21091" />
  <E value="370.32" />
  <Tmin units="K" value="331.5" />
  <Tmax units="K" value="1500" />
  </SecondVirialCoefficient>
<LiquidViscosity name="Liquid viscosity" units="Pa.s">
  <eqno value="101" />
  <A value="-11.504" />
  <B value="1313.6" />
  <C value="0.03353" />
  <D value="-9.5074E-08" />
  <E value="2" />
  <Tmin units="K" value="189.26" />
  <Tmax units="K" value="550" />
  </LiquidViscosity>
<VaporViscosity name="Vapour viscosity" units="Pa.s">
  <eqno value="102" />
  <A value="0.0000018496" />
  <B value="0.38185" />
  <C value="552.33" />
  <D value="63.517" />
  <Tmin units="K" value="189.26" />
  <Tmax units="K" value="1000" />
  </VaporViscosity>
<LiquidThermalConductivity name="Liquid thermal conductivity" units="W/m/K">
  <eqno value="16" />
  <A value="-0.056303" />
  <B value="5.6194" />
  <C value="-1.5408" />
  <D value="-0.00033118" />
  <E value="-0.0000010873" />
  <Tmin units="K" value="189.26" />
  <Tmax units="K" value="454.29" />
  </LiquidThermalConductivity>
<VaporThermalConductivity name="Vapour thermal conductivity" units="W/m/K">
  <eqno value="102" />
  <A value="0.25407" />
  <B value="-0.039016" />
  <C value="-216.19" />
  <D value="1832400" />
  <Tmin units="K" value="189.259" />
  <Tmax units="K" value="1000" />
  </VaporThermalConductivity>
<SurfaceTension name="Surface tension" units="N/m">
  <eqno value="16" />
  <A value="-0.0080943" />
  <B value="39.207" />
  <C value="-3.1114" />
  <D value="0.00028503" />
  <E value="-0.0000046024" />
  <Tmin units="K" value="189.26" />
  <Tmax units="K" value="638.07" />
  </SurfaceTension>
<RPPHeatCapacityCp name="Ideal gas heat capacity (RPP)" units="J/kmol/K">
  <eqno value="4" />
  <A value="-10213" />
  <B value="753.93" />
  <C value="-0.40768" />
  <D value="0.00008049" />
  <Tmin units="K" value="200" />
  <Tmax units="K" value="1500" />
  </RPPHeatCapacityCp>
<AntoineVaporPressure name="Antoine" units="Pa">
  <eqno value="10" />
  <A value="20.511" />
  <B value="3266.1" />
  <C value="-90.749" />
  <Tmin units="K" value="398.51" />
  <Tmax units="K" value="588.2" />
  </AntoineVaporPressure>
<LiquidViscosityRPS name="Liquid viscosity (RPS)" units="Pa.s">
  <eqno value="12" />
  <A value="-2.2888" />
  <B value="-0.01446" />
  <Tmin units="K" value="189.26" />
  <Tmax units="K" value="454.29" />
  </LiquidViscosityRPS>
<COSTALDVolume name="COSTLD characteristic volume (V*)" units="m3/kmol" value="0.501609" />
<DiameterLJ name="Lennard Jones diameter" units="m" value="7.571874E-10" />
<EnergyLJ name="Lennard Jones energy" units="K" value="316.2069" />
<RacketParameter name="Rackett parameter" units="_" value="0.255" />
<FullerVolume name="Fuller et al. diffusion volume" units="_" value="173.04" />
<MatthiasCopemanC2 name="Mathias-Copeman C2" units="_" value="0" />
<Parachor name="Parachor" units="kg0.25.m3/s0.5/kmol" value="0.0633445" />
<SpecificGravity name="Specific gravity" units="_" value="0.868204" />
<Charge name="Charge" units="_" value="0" />
<CostaldAcentricFactor name="SRK acentric factor" units="_" value="0.354019" />
<WilsonVolume name="Wilson volume" units="m3/kmol" value="0.156083" />
<UniquacR name="UNIQUAC r" units="_" value="6.0066" />
<UniquacQ name="UNIQUAC q" units="_" value="4.616" />
<ApiSrkS2 name="API-SRK s2" units="_" value="0.01075" />
<MatthiasCopemanC3 name="Mathias-Copeman C3" units="_" value="0" />
<ChaoSeaderAcentricFactor name="Chao-Seader acentric factor" units="_" value="0.354019" />
<ChaoSeaderSolubilityParameter name="Chao-Seader solubility parameter" units="J0.5/m1.5" value="17460" />
<ChaoSeaderLiquidVolume name="Chao-Seader liquid volume" units="m3/kmol" value="0.156083" />
<UnifacVLE name="UNIFAC">
  <group id="1" value="2" />
  <group id="10" value="4" />
  <group id="13" value="2" />
  </UnifacVLE>
<UnifacLLE name="UNIFAC-LLE">
  <group id="1" value="2" />
  <group id="9" value="4" />
  <group id="12" value="2" />
  </UnifacLLE>
<Asog name="ASOG">
  <group id="1" value="2" />
  <group id="2" value="2" />
  <group id="10" value="4" />
  <group id="11" value="2" />
  </Asog>
<GCmethod name="PPR78">
  <group id="1" value="2" />
  <group id="7" value="4" />
  <group id="2" value="2" />
  <group id="8" value="2" />
  </GCmethod>
<Umr name="UMR">
  <group id="1" value="2" />
  <group id="10" value="4" />
  <group id="13" value="2" />
  </Umr>
<ModifiedUnifac name="Modified UNIFAC">
  <group id="1" value="2" />
  <group id="9" value="4" />
  <group id="12" value="2" />
  </ModifiedUnifac>
<CAS name="CAS number" value="141-93-5" />
<Smiles name="SMILES" value="c1(CC)cc(CC)ccc1" />
</compound>

