<compound>
<LibraryIndex name="Index" value="1286" />
<CompoundID name="Name" value="maleic acid" />
<StructureFormula name="Structure" value="HOOCCHCHCOOH" />
<Family name="Family" value="52" />
<CriticalTemperature name="Critical temperature" units="K" value="773" />
<CriticalPressure name="Critical pressure" units="Pa" value="4990000" />
<CriticalVolume name="Critical volume" units="m3/kmol" value="0.297" />
<CriticalCompressibility name="Critical compressibility factor" units="_" value="0.231" />
<NormalBoilingPointTemperature name="Normal boiling point" units="K" value="411" />
<NormalMeltingPointTemperature name="Melting point" units="K" value="403.45" />
<TriplePointTemperature name="Triple point temperature" units="K" value="403.8" />
<TriplePointPressure name="Triple point pressure" units="Pa" value="98.6734" />
<MolecularWeight name="Molecular weight" units="kg/kmol" value="116.0722" />
<LiquidVolumeAtNormalBoilingPoint name="Liquid molar volume at normal boiling point" units="m3/kmol" value="0.090835" />
<AcentricityFactor name="Acentric factor" units="_" value="0.997587" />
<RadiusOfGyration name="Radius of gyration" units="m" value="4.221E-10" />
<SolubilityParameter name="Solubility parameter" units="J0.5/m1.5" value="30550" />
<DipoleMoment name="Dipole moment" units="Coulomb.m" value="1.06E-29" />
<VanDerWaalsVolume name="Van der Waals volume" units="m3/kmol" value="0.05642" />
<VanDerWaalsArea name="Van der Waals area" units="m2/kmol" value="8.28E+08" />
<HeatOfFormation name="IG heat of formation" units="J/kmol" value="-6.794E+08" />
<GibbsEnergyOfFormation name="IG Gibbs energy of formation" units="J/kmol" value="-5.96E+08" />
<AbsEntropy name="IG absolute entropy" units="J/kmol/K" value="416000" />
<HeatOfFusionAtMeltingPoint name="Heat of fusion at melting point" units="J/kmol" value="3.47E+07" />
<HeatOfCombustion name="Standard net heat of combustion LHV" units="J/kmol" value="-1.2684E+09" />
<SolidDensity name="Solid density" units="kmol/m3">
  <eqno value="2" />
  <A value="13.698" />
  <B value="-1.103E-09" />
  <C value="0" />
  <D value="0" />
  <E value="0" />
  <Tmin units="K" value="293.15" />
  <Tmax units="K" value="302.65" />
  </SolidDensity>
<LiquidDensity name="Liquid density" units="kmol/m3">
  <eqno value="105" />
  <A value="0.77641" />
  <B value="0.231" />
  <C value="773" />
  <D value="0.28571" />
  <Tmin units="K" value="403.8" />
  <Tmax units="K" value="773" />
  </LiquidDensity>
<VaporPressure name="Vapour pressure" units="Pa">
  <eqno value="101" />
  <A value="187.4602" />
  <B value="-19104.39" />
  <C value="-22.78106" />
  <D value="6.967225E-06" />
  <E value="2" />
  <Tmin units="K" value="403.8" />
  <Tmax units="K" value="773" />
  </VaporPressure>
<HeatOfVaporization name="Heat of vaporization" units="J/kmol">
  <eqno value="106" />
  <A value="1.16446E+08" />
  <B value="0.325842" />
  <C value="-0.000233021" />
  <D value="0.00216992" />
  <E value="0.484323" />
  <Tmin units="K" value="403.8" />
  <Tmax units="K" value="773" />
  </HeatOfVaporization>
<SolidHeatCapacityCp name="Solid heat capacity" units="J/kmol/K">
  <eqno value="100" />
  <A value="21794" />
  <B value="494.53" />
  <C value="-0.98012" />
  <D value="0.002955" />
  <E value="-0.00000306" />
  <Tmin units="K" value="60" />
  <Tmax units="K" value="350" />
  </SolidHeatCapacityCp>
<LiquidHeatCapacityCp name="Liquid heat capacity" units="J/kmol/K">
  <eqno value="16" />
  <A value="148240" />
  <B value="706.52" />
  <C value="4.046" />
  <D value="0.018422" />
  <E value="-0.000011933" />
  <Tmin units="K" value="403.8" />
  <Tmax units="K" value="579.75" />
  </LiquidHeatCapacityCp>
<IdealGasHeatCapacityCp name="Ideal gas heat capacity" units="J/kmol/K">
  <eqno value="16" />
  <A value="60872" />
  <B value="-493.34" />
  <C value="12.58" />
  <D value="-0.00028606" />
  <E value="0.0000001493" />
  <Tmin units="K" value="273" />
  <Tmax units="K" value="1500" />
  </IdealGasHeatCapacityCp>
<LiquidViscosity name="Liquid viscosity" units="Pa.s">
  <eqno value="101" />
  <A value="-11.993" />
  <B value="2508.3" />
  <C value="0.079857" />
  <D value="-1.8766E-08" />
  <E value="2" />
  <Tmin units="K" value="403.45" />
  <Tmax units="K" value="673" />
  </LiquidViscosity>
<VaporViscosity name="Vapour viscosity" units="Pa.s">
  <eqno value="102" />
  <A value="9.0189E-08" />
  <B value="0.80995" />
  <C value="111.91" />
  <D value="-70.22" />
  <Tmin units="K" value="403" />
  <Tmax units="K" value="1000" />
  </VaporViscosity>
<LiquidThermalConductivity name="Liquid thermal conductivity" units="W/m/K">
  <eqno value="16" />
  <A value="-0.061944" />
  <B value="-160.86" />
  <C value="-0.25643" />
  <D value="-0.0021458" />
  <E value="2.3954E-07" />
  <Tmin units="K" value="403.8" />
  <Tmax units="K" value="612" />
  </LiquidThermalConductivity>
<VaporThermalConductivity name="Vapour thermal conductivity" units="W/m/K">
  <eqno value="102" />
  <A value="0.0000021963" />
  <B value="1.4191" />
  <C value="-285.03" />
  <D value="84199" />
  <Tmin units="K" value="274" />
  <Tmax units="K" value="1000" />
  </VaporThermalConductivity>
<SurfaceTension name="Surface tension" units="N/m">
  <eqno value="16" />
  <A value="-0.010076" />
  <B value="568.91" />
  <C value="-6.0243" />
  <D value="0.0070715" />
  <E value="-0.0000080291" />
  <Tmin units="K" value="403.45" />
  <Tmax units="K" value="773" />
  </SurfaceTension>
<RPPHeatCapacityCp name="Ideal gas heat capacity (RPP)" units="J/kmol/K">
  <eqno value="4" />
  <A value="13513" />
  <B value="415.8" />
  <C value="-0.29766" />
  <D value="0.000084426" />
  <Tmin units="K" value="273" />
  <Tmax units="K" value="1500" />
  </RPPHeatCapacityCp>
<AntoineVaporPressure name="Antoine" units="Pa">
  <eqno value="10" />
  <A value="23.374" />
  <B value="5133" />
  <C value="-132.2" />
  <Tmin units="K" value="477.36" />
  <Tmax units="K" value="695.27" />
  </AntoineVaporPressure>
<LiquidViscosityRPS name="Liquid viscosity (RPS)" units="Pa.s">
  <eqno value="12" />
  <A value="-1.0564" />
  <B value="-0.010763" />
  <Tmin units="K" value="403.45" />
  <Tmax units="K" value="565" />
  </LiquidViscosityRPS>
<COSTALDVolume name="COSTLD characteristic volume (V*)" units="m3/kmol" value="0.300877" />
<DiameterLJ name="Lennard Jones diameter" units="m" value="7.224859E-10" />
<EnergyLJ name="Lennard Jones energy" units="K" value="258.283" />
<RacketParameter name="Rackett parameter" units="_" value="0.231" />
<FullerVolume name="Fuller et al. diffusion volume" units="_" value="97.28" />
<Parachor name="Parachor" units="kg0.25.m3/s0.5/kmol" value="0.03631" />
<SpecificGravity name="Specific gravity" units="_" value="1.407506" />
<Charge name="Charge" units="_" value="0" />
<CostaldAcentricFactor name="SRK acentric factor" units="_" value="0.997587" />
<WilsonVolume name="Wilson volume" units="m3/kmol" value="0.090835" />
<UniquacR name="UNIQUAC r" units="_" value="3.7193" />
<UniquacQ name="UNIQUAC q" units="_" value="3.315" />
<ChaoSeaderAcentricFactor name="Chao-Seader acentric factor" units="_" value="0.997587" />
<ChaoSeaderSolubilityParameter name="Chao-Seader solubility parameter" units="J0.5/m1.5" value="30550" />
<ChaoSeaderLiquidVolume name="Chao-Seader liquid volume" units="m3/kmol" value="0.090835" />
<UnifacVLE name="UNIFAC">
  <group id="43" value="2" />
  <group id="6" value="1" />
  </UnifacVLE>
<UnifacLLE name="UNIFAC-LLE">
  <group id="23" value="2" />
  <group id="6" value="1" />
  </UnifacLLE>
<Asog name="ASOG">
  <group id="6" value="1" />
  <group id="24" value="2" />
  </Asog>
<Umr name="UMR">
  <group id="43" value="2" />
  <group id="6" value="1" />
  </Umr>
<ModifiedUnifac name="Modified UNIFAC">
  <group id="42" value="2" />
  <group id="6" value="1" />
  </ModifiedUnifac>
<CAS name="CAS number" value="110-16-7" />
<Smiles name="SMILES" value="C(=O)(O)/C=C\C(=O)O" />
</compound>

