<compound>
<LibraryIndex name="Index" value="1681" />
<CompoundID name="Name" value="methyl iodide" />
<StructureFormula name="Structure" value="CH3I" />
<Family name="Family" value="31" />
<CriticalTemperature name="Critical temperature" units="K" value="528" />
<CriticalPressure name="Critical pressure" units="Pa" value="7370000" />
<CriticalVolume name="Critical volume" units="m3/kmol" value="0.185" />
<CriticalCompressibility name="Critical compressibility factor" units="_" value="0.311" />
<NormalBoilingPointTemperature name="Normal boiling point" units="K" value="315.58" />
<NormalMeltingPointTemperature name="Melting point" units="K" value="206.7" />
<TriplePointTemperature name="Triple point temperature" units="K" value="206.7" />
<TriplePointPressure name="Triple point pressure" units="Pa" value="254.555" />
<MolecularWeight name="Molecular weight" units="kg/kmol" value="141.939" />
<LiquidVolumeAtNormalBoilingPoint name="Liquid molar volume at normal boiling point" units="m3/kmol" value="0.062667" />
<AcentricityFactor name="Acentric factor" units="_" value="0.19716" />
<RadiusOfGyration name="Radius of gyration" units="m" value="1.035E-10" />
<SolubilityParameter name="Solubility parameter" units="J0.5/m1.5" value="20180" />
<DipoleMoment name="Dipole moment" units="Coulomb.m" value="5.4E-30" />
<VanDerWaalsVolume name="Van der Waals volume" units="m3/kmol" value="0.03285" />
<VanDerWaalsArea name="Van der Waals area" units="m2/kmol" value="4.6E+08" />
<HeatOfFormation name="IG heat of formation" units="J/kmol" value="1.3E+07" />
<GibbsEnergyOfFormation name="IG Gibbs energy of formation" units="J/kmol" value="1.47E+07" />
<AbsEntropy name="IG absolute entropy" units="J/kmol/K" value="254000" />
<HeatOfFusionAtMeltingPoint name="Heat of fusion at melting point" units="J/kmol" value="0" />
<MatthiasCopemanC1 name="Mathias-Copeman C1" units="_" value="0.70016" />
<HeatOfCombustion name="Standard net heat of combustion LHV" units="J/kmol" value="-7.096E+08" />
<SolidDensity name="Solid density" units="kmol/m3">
  <eqno value="2" />
  <A value="22.404" />
  <B value="-0.011982" />
  <Tmin units="K" value="82.68" />
  <Tmax units="K" value="206.7" />
  </SolidDensity>
<LiquidDensity name="Liquid density" units="kmol/m3">
  <eqno value="105" />
  <A value="1.3975" />
  <B value="0.25854" />
  <C value="528" />
  <D value="0.2679" />
  <Tmin units="K" value="206.7" />
  <Tmax units="K" value="528" />
  </LiquidDensity>
<VaporPressure name="Vapour pressure" units="Pa">
  <eqno value="101" />
  <A value="56.57754" />
  <B value="-4804.529" />
  <C value="-5.238128" />
  <D value="3.097144E-06" />
  <E value="2" />
  <Tmin units="K" value="204.8" />
  <Tmax units="K" value="528" />
  </VaporPressure>
<HeatOfVaporization name="Heat of vaporization" units="J/kmol">
  <eqno value="106" />
  <A value="3.3737E+07" />
  <B value="-0.25822" />
  <C value="1.7219" />
  <D value="-2.0034" />
  <E value="0.83642" />
  <Tmin units="K" value="206.7" />
  <Tmax units="K" value="528" />
  </HeatOfVaporization>
<SolidHeatCapacityCp name="Solid heat capacity" units="J/kmol/K">
  <eqno value="1" />
  <A value="58860" />
  <Tmin units="K" value="298" />
  <Tmax units="K" value="5" />
  </SolidHeatCapacityCp>
<LiquidHeatCapacityCp name="Liquid heat capacity" units="J/kmol/K">
  <eqno value="16" />
  <A value="81227" />
  <B value="-510450" />
  <C value="4831.2" />
  <D value="-15.234" />
  <E value="0.016088" />
  <Tmin units="K" value="243.45" />
  <Tmax units="K" value="315.58" />
  </LiquidHeatCapacityCp>
<IdealGasHeatCapacityCp name="Ideal gas heat capacity" units="J/kmol/K">
  <eqno value="16" />
  <A value="33243" />
  <B value="-588.89" />
  <C value="11.23" />
  <D value="0.00016737" />
  <E value="-5.0885E-08" />
  <Tmin units="K" value="100" />
  <Tmax units="K" value="1500" />
  </IdealGasHeatCapacityCp>
<SecondVirialCoefficient name="Second virial coefficient" units="m3/kmol">
  <eqno value="104" />
  <A value="0.091986" />
  <B value="-122.96" />
  <C value="-8.7523" />
  <D value="-736.97" />
  <E value="-492.42" />
  <Tmin units="K" value="264" />
  <Tmax units="K" value="1500" />
  </SecondVirialCoefficient>
<LiquidViscosity name="Liquid viscosity" units="Pa.s">
  <eqno value="101" />
  <A value="-8.0691" />
  <B value="650.82" />
  <C value="-0.30881" />
  <D value="-1.1201E-07" />
  <E value="2" />
  <Tmin units="K" value="206.7" />
  <Tmax units="K" value="428" />
  </LiquidViscosity>
<VaporViscosity name="Vapour viscosity" units="Pa.s">
  <eqno value="102" />
  <A value="7.1469E-07" />
  <B value="0.6322" />
  <C value="292.39" />
  <D value="-1664.7" />
  <Tmin units="K" value="206.7" />
  <Tmax units="K" value="1000" />
  </VaporViscosity>
<LiquidThermalConductivity name="Liquid thermal conductivity" units="W/m/K">
  <eqno value="16" />
  <A value="0.025022" />
  <B value="-2.7147" />
  <C value="-2.1673" />
  <D value="-0.0005511" />
  <E value="-0.000004231" />
  <Tmin units="K" value="206.7" />
  <Tmax units="K" value="315.58" />
  </LiquidThermalConductivity>
<VaporThermalConductivity name="Vapour thermal conductivity" units="W/m/K">
  <eqno value="102" />
  <A value="0.15913" />
  <B value="0.010769" />
  <C value="1577.4" />
  <D value="2109400" />
  <Tmin units="K" value="206.7" />
  <Tmax units="K" value="1500" />
  </VaporThermalConductivity>
<SurfaceTension name="Surface tension" units="N/m">
  <eqno value="16" />
  <A value="-0.0089542" />
  <B value="133.23" />
  <C value="-3.9845" />
  <D value="0.0046929" />
  <E value="-0.000012515" />
  <Tmin units="K" value="206.7" />
  <Tmax units="K" value="528" />
  </SurfaceTension>
<RPPHeatCapacityCp name="Ideal gas heat capacity (RPP)" units="J/kmol/K">
  <eqno value="4" />
  <A value="14904.66" />
  <B value="117.0558" />
  <C value="-0.0691448" />
  <D value="0.0000175067" />
  <Tmin units="K" value="200" />
  <Tmax units="K" value="1200" />
  </RPPHeatCapacityCp>
<RelativeStaticPermittivity name="Relative static permittivity" units="_">
  <eqno value="120" />
  <A value="-5.958672" />
  <B value="-3550" />
  <C value="-21.3" />
  <Tmin units="K" value="274.15" />
  <Tmax units="K" value="444.15" />
  </RelativeStaticPermittivity>
<AntoineVaporPressure name="Antoine" units="Pa">
  <eqno value="10" />
  <A value="22.002" />
  <B value="3357.9" />
  <C value="5.1859" />
  <Tmin units="K" value="317.11" />
  <Tmax units="K" value="460.36" />
  </AntoineVaporPressure>
<LiquidViscosityRPS name="Liquid viscosity (RPS)" units="Pa.s">
  <eqno value="13" />
  <A value="-1.7257" />
  <B value="-0.031602" />
  <C value="0.000039256" />
  <Tmin units="K" value="206.7" />
  <Tmax units="K" value="315.58" />
  </LiquidViscosityRPS>
<COSTALDVolume name="COSTLD characteristic volume (V*)" units="m3/kmol" value="0.174097" />
<DiameterLJ name="Lennard Jones diameter" units="m" value="4.318402E-10" />
<EnergyLJ name="Lennard Jones energy" units="K" value="514.6174" />
<FullerVolume name="Fuller et al. diffusion volume" units="_" value="52.63" />
<MatthiasCopemanC2 name="Mathias-Copeman C2" units="_" value="0" />
<Parachor name="Parachor" units="kg0.25.m3/s0.5/kmol" value="0.026" />
<SpecificGravity name="Specific gravity" units="_" value="2.29293" />
<Charge name="Charge" units="_" value="0" />
<CostaldAcentricFactor name="SRK acentric factor" units="_" value="0.192721" />
<WilsonVolume name="Wilson volume" units="m3/kmol" value="0.062667" />
<UniquacR name="UNIQUAC r" units="_" value="2.1651" />
<UniquacQ name="UNIQUAC q" units="_" value="1.84" />
<MatthiasCopemanC3 name="Mathias-Copeman C3" units="_" value="0" />
<ChaoSeaderAcentricFactor name="Chao-Seader acentric factor" units="_" value="0.192721" />
<ChaoSeaderSolubilityParameter name="Chao-Seader solubility parameter" units="J0.5/m1.5" value="20172.3" />
<ChaoSeaderLiquidVolume name="Chao-Seader liquid volume" units="m3/kmol" value="0.062667" />
<UnifacVLE name="UNIFAC">
  <group id="1" value="1" />
  <group id="64" value="1" />
  </UnifacVLE>
<Asog name="ASOG">
  <group id="1" value="1" />
  <group id="45" value="1" />
  </Asog>
<Umr name="UMR">
  <group id="1" value="1" />
  <group id="64" value="1" />
  </Umr>
<ModifiedUnifac name="Modified UNIFAC">
  <group id="1" value="1" />
  <group id="63" value="1" />
  </ModifiedUnifac>
<CAS name="CAS number" value="74-88-4" />
<Smiles name="SMILES" value="CI" />
</compound>

