<compound>
<LibraryIndex name="Index" value="1427" />
<CompoundID name="Name" value="methyl tert-pentyl ether" />
<StructureFormula name="Structure" value="CH3OC(CH3)2CH2CH3" />
<Family name="Family" value="61" />
<CriticalTemperature name="Critical temperature" units="K" value="534" />
<CriticalPressure name="Critical pressure" units="Pa" value="3040000" />
<CriticalVolume name="Critical volume" units="m3/kmol" value="0.386" />
<CriticalCompressibility name="Critical compressibility factor" units="_" value="0.264" />
<NormalBoilingPointTemperature name="Normal boiling point" units="K" value="359.51" />
<MolecularWeight name="Molecular weight" units="kg/kmol" value="102.1748" />
<LiquidVolumeAtNormalBoilingPoint name="Liquid molar volume at normal boiling point" units="m3/kmol" value="0.133437" />
<AcentricityFactor name="Acentric factor" units="_" value="0.298071" />
<RadiusOfGyration name="Radius of gyration" units="m" value="3.465E-10" />
<SolubilityParameter name="Solubility parameter" units="J0.5/m1.5" value="15480" />
<DipoleMoment name="Dipole moment" units="Coulomb.m" value="4.90339E-30" />
<VanDerWaalsVolume name="Van der Waals volume" units="m3/kmol" value="0.07194" />
<VanDerWaalsArea name="Van der Waals area" units="m2/kmol" value="1.043E+09" />
<HeatOfFormation name="IG heat of formation" units="J/kmol" value="-3.054E+08" />
<GibbsEnergyOfFormation name="IG Gibbs energy of formation" units="J/kmol" value="-1.137E+08" />
<AbsEntropy name="IG absolute entropy" units="J/kmol/K" value="408000" />
<HeatOfFusionAtMeltingPoint name="Heat of fusion at melting point" units="J/kmol" value="0" />
<MatthiasCopemanC1 name="Mathias-Copeman C1" units="_" value="1.0449" />
<HeatOfCombustion name="Standard net heat of combustion LHV" units="J/kmol" value="-3.71229E+09" />
<SolidDensity name="Solid density" units="kmol/m3">
  <eqno value="2" />
  <A value="10.1" />
  <B value="-6.0195E-16" />
  <Tmin units="K" value="0" />
  <Tmax units="K" value="9.5" />
  </SolidDensity>
<LiquidDensity name="Liquid density" units="kmol/m3">
  <eqno value="105" />
  <A value="0.68843" />
  <B value="0.26574" />
  <C value="534" />
  <D value="0.27067" />
  <Tmin units="K" value="160" />
  <Tmax units="K" value="534" />
  </LiquidDensity>
<VaporPressure name="Vapour pressure" units="Pa">
  <eqno value="101" />
  <A value="127.09" />
  <B value="-8433.7" />
  <C value="-15.94" />
  <D value="0.000013112" />
  <E value="2" />
  <Tmin units="K" value="160" />
  <Tmax units="K" value="534" />
  </VaporPressure>
<HeatOfVaporization name="Heat of vaporization" units="J/kmol">
  <eqno value="106" />
  <A value="6.112039E+07" />
  <B value="2.144847" />
  <C value="-4.987322" />
  <D value="5.569725" />
  <E value="-2.294462" />
  <Tmin units="K" value="160" />
  <Tmax units="K" value="534" />
  </HeatOfVaporization>
<SolidHeatCapacityCp name="Solid heat capacity" units="J/kmol/K">
  <eqno value="1" />
  <A value="184600" />
  <Tmin units="K" value="298" />
  <Tmax units="K" value="5" />
  </SolidHeatCapacityCp>
<LiquidHeatCapacityCp name="Liquid heat capacity" units="J/kmol/K">
  <eqno value="16" />
  <A value="96936" />
  <B value="-844.6" />
  <C value="17.426" />
  <D value="-0.01423" />
  <E value="0.000014683" />
  <Tmin units="K" value="267" />
  <Tmax units="K" value="500" />
  </LiquidHeatCapacityCp>
<IdealGasHeatCapacityCp name="Ideal gas heat capacity" units="J/kmol/K">
  <eqno value="16" />
  <A value="86134" />
  <B value="-503.3" />
  <C value="12.828" />
  <D value="0.00026316" />
  <E value="-9.3404E-08" />
  <Tmin units="K" value="273" />
  <Tmax units="K" value="1500" />
  </IdealGasHeatCapacityCp>
<SecondVirialCoefficient name="Second virial coefficient" units="m3/kmol">
  <eqno value="104" />
  <A value="0.24596" />
  <B value="-275.48" />
  <C value="-36.668" />
  <D value="-851.22" />
  <E value="-5476.3" />
  <Tmin units="K" value="267" />
  <Tmax units="K" value="1947" />
  </SecondVirialCoefficient>
<LiquidViscosity name="Liquid viscosity" units="Pa.s">
  <eqno value="101" />
  <A value="-11.271" />
  <B value="991.37" />
  <C value="-0.019082" />
  <D value="-2.1664E-08" />
  <E value="2" />
  <Tmin units="K" value="160" />
  <Tmax units="K" value="427.2" />
  </LiquidViscosity>
<VaporViscosity name="Vapour viscosity" units="Pa.s">
  <eqno value="102" />
  <A value="6.9893E-08" />
  <B value="0.83491" />
  <C value="61.227" />
  <D value="-3034.8" />
  <Tmin units="K" value="160" />
  <Tmax units="K" value="1000" />
  </VaporViscosity>
<LiquidThermalConductivity name="Liquid thermal conductivity" units="W/m/K">
  <eqno value="16" />
  <A value="-0.10613" />
  <B value="12.391" />
  <C value="-1.3082" />
  <D value="-0.00026248" />
  <E value="-0.0000013654" />
  <Tmin units="K" value="160" />
  <Tmax units="K" value="425" />
  </LiquidThermalConductivity>
<VaporThermalConductivity name="Vapour thermal conductivity" units="W/m/K">
  <eqno value="102" />
  <A value="0.12493" />
  <B value="0.14978" />
  <C value="1706.4" />
  <D value="1349200" />
  <Tmin units="K" value="359.45" />
  <Tmax units="K" value="1000" />
  </VaporThermalConductivity>
<SurfaceTension name="Surface tension" units="N/m">
  <eqno value="16" />
  <A value="-0.0083071" />
  <B value="83.854" />
  <C value="-3.8901" />
  <D value="0.003534" />
  <E value="-0.000010373" />
  <Tmin units="K" value="160" />
  <Tmax units="K" value="534" />
  </SurfaceTension>
<RPPHeatCapacityCp name="Ideal gas heat capacity (RPP)" units="J/kmol/K">
  <eqno value="4" />
  <A value="3885.8" />
  <B value="620.93" />
  <C value="-0.34528" />
  <D value="0.000073697" />
  <Tmin units="K" value="298.15" />
  <Tmax units="K" value="1200" />
  </RPPHeatCapacityCp>
<AntoineVaporPressure name="Antoine" units="Pa">
  <eqno value="10" />
  <A value="21.355" />
  <B value="3194.9" />
  <C value="-35.861" />
  <Tmin units="K" value="160" />
  <Tmax units="K" value="534" />
  </AntoineVaporPressure>
<LiquidViscosityRPS name="Liquid viscosity (RPS)" units="Pa.s">
  <eqno value="13" />
  <A value="1.2135" />
  <B value="-0.051268" />
  <C value="0.000067114" />
  <Tmin units="K" value="160" />
  <Tmax units="K" value="359.51" />
  </LiquidViscosityRPS>
<COSTALDVolume name="COSTLD characteristic volume (V*)" units="m3/kmol" value="0.387974" />
<DiameterLJ name="Lennard Jones diameter" units="m" value="6.717114E-10" />
<EnergyLJ name="Lennard Jones energy" units="K" value="288.555" />
<RacketParameter name="Rackett parameter" units="_" value="0.264404" />
<FullerVolume name="Fuller et al. diffusion volume" units="_" value="133.85" />
<MatthiasCopemanC2 name="Mathias-Copeman C2" units="_" value="-0.84722" />
<Parachor name="Parachor" units="kg0.25.m3/s0.5/kmol" value="0.0516" />
<SpecificGravity name="Specific gravity" units="_" value="0.77448" />
<Charge name="Charge" units="_" value="0" />
<CostaldAcentricFactor name="SRK acentric factor" units="_" value="0.298071" />
<WilsonVolume name="Wilson volume" units="m3/kmol" value="0.133437" />
<UniquacR name="UNIQUAC r" units="_" value="4.7422" />
<UniquacQ name="UNIQUAC q" units="_" value="4.172" />
<ApiSrkS1 name="API-SRK s1" units="_" value="0.905443" />
<ApiSrkS2 name="API-SRK s2" units="_" value="0.010549" />
<MatthiasCopemanC3 name="Mathias-Copeman C3" units="_" value="1.7281" />
<ChaoSeaderAcentricFactor name="Chao-Seader acentric factor" units="_" value="0.298071" />
<ChaoSeaderSolubilityParameter name="Chao-Seader solubility parameter" units="J0.5/m1.5" value="15480" />
<ChaoSeaderLiquidVolume name="Chao-Seader liquid volume" units="m3/kmol" value="0.133437" />
<UnifacVLE name="UNIFAC">
  <group id="1" value="3" />
  <group id="2" value="1" />
  <group id="4" value="1" />
  <group id="25" value="1" />
  </UnifacVLE>
<UnifacLLE name="UNIFAC-LLE">
  <group id="1" value="3" />
  <group id="2" value="1" />
  <group id="4" value="1" />
  <group id="27" value="1" />
  </UnifacLLE>
<Asog name="ASOG">
  <group id="1" value="4" />
  <group id="2" value="1" />
  <group id="4" value="1" />
  <group id="19" value="1" />
  </Asog>
<Umr name="UMR">
  <group id="1" value="3" />
  <group id="2" value="1" />
  <group id="4" value="1" />
  <group id="25" value="1" />
  </Umr>
<ModifiedUnifac name="Modified UNIFAC">
  <group id="1" value="3" />
  <group id="2" value="1" />
  <group id="4" value="1" />
  <group id="24" value="1" />
  </ModifiedUnifac>
<CAS name="CAS number" value="994-05-8" />
<Smiles name="SMILES" value="COC(C)(C)CC" />
</compound>

