<compound>
<LibraryIndex name="Index" value="1278" />
<CompoundID name="Name" value="methacrylic acid" />
<StructureFormula name="Structure" value="CH2C(CH3)COOH" />
<Family name="Family" value="51" />
<CriticalTemperature name="Critical temperature" units="K" value="643" />
<CriticalPressure name="Critical pressure" units="Pa" value="4700000" />
<CriticalVolume name="Critical volume" units="m3/kmol" value="0.27" />
<CriticalCompressibility name="Critical compressibility factor" units="_" value="0.244" />
<NormalBoilingPointTemperature name="Normal boiling point" units="K" value="433.65" />
<NormalMeltingPointTemperature name="Melting point" units="K" value="288.15" />
<TriplePointTemperature name="Triple point temperature" units="K" value="288.15" />
<TriplePointPressure name="Triple point pressure" units="Pa" value="58.5615" />
<MolecularWeight name="Molecular weight" units="kg/kmol" value="86.08924" />
<LiquidVolumeAtNormalBoilingPoint name="Liquid molar volume at normal boiling point" units="m3/kmol" value="0.0852843" />
<AcentricityFactor name="Acentric factor" units="_" value="0.331817" />
<RadiusOfGyration name="Radius of gyration" units="m" value="3.412E-10" />
<SolubilityParameter name="Solubility parameter" units="J0.5/m1.5" value="21000" />
<DipoleMoment name="Dipole moment" units="Coulomb.m" value="5.5E-30" />
<VanDerWaalsVolume name="Van der Waals volume" units="m3/kmol" value="0.05036" />
<VanDerWaalsArea name="Van der Waals area" units="m2/kmol" value="7.65E+08" />
<HeatOfFormation name="IG heat of formation" units="J/kmol" value="-3.68E+08" />
<GibbsEnergyOfFormation name="IG Gibbs energy of formation" units="J/kmol" value="-2.88E+08" />
<AbsEntropy name="IG absolute entropy" units="J/kmol/K" value="350000" />
<HeatOfFusionAtMeltingPoint name="Heat of fusion at melting point" units="J/kmol" value="0" />
<MatthiasCopemanC1 name="Mathias-Copeman C1" units="_" value="0.75969" />
<HeatOfCombustion name="Standard net heat of combustion LHV" units="J/kmol" value="-1.93E+09" />
<SolidDensity name="Solid density" units="kmol/m3">
  <eqno value="2" />
  <A value="15.003" />
  <B value="-0.0057166" />
  <C value="0" />
  <D value="0" />
  <E value="0" />
  <Tmin units="K" value="115.26" />
  <Tmax units="K" value="288.15" />
  </SolidDensity>
<LiquidDensity name="Liquid density" units="kmol/m3">
  <eqno value="105" />
  <A value="2.1083" />
  <B value="0.37321" />
  <C value="643" />
  <D value="0.47743" />
  <Tmin units="K" value="288.15" />
  <Tmax units="K" value="642.32" />
  </LiquidDensity>
<VaporPressure name="Vapour pressure" units="Pa">
  <eqno value="101" />
  <A value="9.843112" />
  <B value="-6238.161" />
  <C value="2.965581" />
  <D value="-0.0000105952" />
  <E value="2" />
  <Tmin units="K" value="288.15" />
  <Tmax units="K" value="662" />
  </VaporPressure>
<HeatOfVaporization name="Heat of vaporization" units="J/kmol">
  <eqno value="106" />
  <A value="7009500" />
  <B value="-12.334" />
  <C value="36.335" />
  <D value="-42.263" />
  <E value="18.248" />
  <Tmin units="K" value="288.15" />
  <Tmax units="K" value="642.32" />
  </HeatOfVaporization>
<SolidHeatCapacityCp name="Solid heat capacity" units="J/kmol/K">
  <eqno value="100" />
  <A value="6059" />
  <B value="735.3" />
  <C value="-1.363" />
  <D value="0.0032903" />
  <E value="-0.0000034953" />
  <Tmin units="K" value="50" />
  <Tmax units="K" value="288.15" />
  </SolidHeatCapacityCp>
<LiquidHeatCapacityCp name="Liquid heat capacity" units="J/kmol/K">
  <eqno value="16" />
  <A value="130480" />
  <B value="265.42" />
  <C value="3.971" />
  <D value="0.026507" />
  <E value="-0.000026858" />
  <Tmin units="K" value="288.15" />
  <Tmax units="K" value="434.15" />
  </LiquidHeatCapacityCp>
<IdealGasHeatCapacityCp name="Ideal gas heat capacity" units="J/kmol/K">
  <eqno value="16" />
  <A value="48894" />
  <B value="-560.59" />
  <C value="12.692" />
  <D value="-0.00031458" />
  <E value="1.4407E-07" />
  <Tmin units="K" value="273" />
  <Tmax units="K" value="1200.1" />
  </IdealGasHeatCapacityCp>
<LiquidViscosity name="Liquid viscosity" units="Pa.s">
  <eqno value="101" />
  <A value="0.054722" />
  <B value="968.88" />
  <C value="-1.7788" />
  <D value="0.0000031087" />
  <E value="2" />
  <Tmin units="K" value="280" />
  <Tmax units="K" value="543" />
  </LiquidViscosity>
<VaporViscosity name="Vapour viscosity" units="Pa.s">
  <eqno value="102" />
  <A value="9.4671E-08" />
  <B value="0.81582" />
  <C value="92.397" />
  <D value="383.72" />
  <Tmin units="K" value="288.15" />
  <Tmax units="K" value="1000" />
  </VaporViscosity>
<LiquidThermalConductivity name="Liquid thermal conductivity" units="W/m/K">
  <eqno value="16" />
  <A value="-0.067603" />
  <B value="29.398" />
  <C value="-1.512" />
  <D value="0.00016774" />
  <E value="-0.0000015769" />
  <Tmin units="K" value="192.9" />
  <Tmax units="K" value="530" />
  </LiquidThermalConductivity>
<VaporThermalConductivity name="Vapour thermal conductivity" units="W/m/K">
  <eqno value="102" />
  <A value="0.000065218" />
  <B value="1.0555" />
  <C value="299.46" />
  <D value="29315" />
  <Tmin units="K" value="288.15" />
  <Tmax units="K" value="1000" />
  </VaporThermalConductivity>
<SurfaceTension name="Surface tension" units="N/m">
  <eqno value="16" />
  <A value="-0.0048338" />
  <B value="515.9" />
  <C value="-7.199" />
  <D value="0.011548" />
  <E value="-0.000015481" />
  <Tmin units="K" value="288.15" />
  <Tmax units="K" value="642.32" />
  </SurfaceTension>
<RPPHeatCapacityCp name="Ideal gas heat capacity (RPP)" units="J/kmol/K">
  <eqno value="4" />
  <A value="-15268" />
  <B value="462.54" />
  <C value="-0.34541" />
  <D value="0.00010342" />
  <Tmin units="K" value="273" />
  <Tmax units="K" value="1200.1" />
  </RPPHeatCapacityCp>
<AntoineVaporPressure name="Antoine" units="Pa">
  <eqno value="10" />
  <A value="20.957" />
  <B value="2984.3" />
  <C value="-118.31" />
  <Tmin units="K" value="386.53" />
  <Tmax units="K" value="572.03" />
  </AntoineVaporPressure>
<LiquidViscosityRPS name="Liquid viscosity (RPS)" units="Pa.s">
  <eqno value="12" />
  <A value="-3.4335" />
  <B value="-0.010614" />
  <Tmin units="K" value="280" />
  <Tmax units="K" value="434.15" />
  </LiquidViscosityRPS>
<COSTALDVolume name="COSTLD characteristic volume (V*)" units="m3/kmol" value="0.267781" />
<DiameterLJ name="Lennard Jones diameter" units="m" value="6.553879E-10" />
<EnergyLJ name="Lennard Jones energy" units="K" value="261.6541" />
<RacketParameter name="Rackett parameter" units="_" value="0.244" />
<FullerVolume name="Fuller et al. diffusion volume" units="_" value="89.68" />
<MatthiasCopemanC2 name="Mathias-Copeman C2" units="_" value="3.6523" />
<Parachor name="Parachor" units="kg0.25.m3/s0.5/kmol" value="0.0349816" />
<SpecificGravity name="Specific gravity" units="_" value="1.021898" />
<Charge name="Charge" units="_" value="0" />
<CostaldAcentricFactor name="SRK acentric factor" units="_" value="0.331817" />
<WilsonVolume name="Wilson volume" units="m3/kmol" value="0.0852843" />
<UniquacR name="UNIQUAC r" units="_" value="3.3197" />
<UniquacQ name="UNIQUAC q" units="_" value="3.06" />
<MatthiasCopemanC3 name="Mathias-Copeman C3" units="_" value="-6.7774" />
<ChaoSeaderAcentricFactor name="Chao-Seader acentric factor" units="_" value="0.331817" />
<ChaoSeaderSolubilityParameter name="Chao-Seader solubility parameter" units="J0.5/m1.5" value="21000" />
<ChaoSeaderLiquidVolume name="Chao-Seader liquid volume" units="m3/kmol" value="0.0852843" />
<UnifacVLE name="UNIFAC">
  <group id="1" value="1" />
  <group id="7" value="1" />
  <group id="43" value="1" />
  </UnifacVLE>
<UnifacLLE name="UNIFAC-LLE">
  <group id="1" value="1" />
  <group id="8" value="1" />
  <group id="23" value="1" />
  </UnifacLLE>
<Asog name="ASOG">
  <group id="1" value="1" />
  <group id="7" value="1" />
  <group id="24" value="1" />
  </Asog>
<Umr name="UMR">
  <group id="1" value="1" />
  <group id="7" value="1" />
  <group id="43" value="1" />
  </Umr>
<ModifiedUnifac name="Modified UNIFAC">
  <group id="1" value="1" />
  <group id="7" value="1" />
  <group id="42" value="1" />
  </ModifiedUnifac>
<CAS name="CAS number" value="79-41-4" />
<Smiles name="SMILES" value="C=C(C)C(=O)O" />
</compound>

