<compound>
<LibraryIndex name="Index" value="1312" />
<CompoundID name="Name" value="methyl acetate" />
<StructureFormula name="Structure" value="CH3COOCH3" />
<Family name="Family" value="56" />
<CriticalTemperature name="Critical temperature" units="K" value="506.8" />
<CriticalPressure name="Critical pressure" units="Pa" value="4690000" />
<CriticalVolume name="Critical volume" units="m3/kmol" value="0.228" />
<CriticalCompressibility name="Critical compressibility factor" units="_" value="0.254" />
<NormalBoilingPointTemperature name="Normal boiling point" units="K" value="330.09" />
<NormalMeltingPointTemperature name="Melting point" units="K" value="175.15" />
<TriplePointTemperature name="Triple point temperature" units="K" value="175.15" />
<TriplePointPressure name="Triple point pressure" units="Pa" value="1.01703" />
<MolecularWeight name="Molecular weight" units="kg/kmol" value="74.07854" />
<LiquidVolumeAtNormalBoilingPoint name="Liquid molar volume at normal boiling point" units="m3/kmol" value="0.07989" />
<AcentricityFactor name="Acentric factor" units="_" value="0.323" />
<RadiusOfGyration name="Radius of gyration" units="m" value="2.996E-10" />
<SolubilityParameter name="Solubility parameter" units="J0.5/m1.5" value="19350" />
<DipoleMoment name="Dipole moment" units="Coulomb.m" value="5.6E-30" />
<VanDerWaalsVolume name="Van der Waals volume" units="m3/kmol" value="0.04254" />
<VanDerWaalsArea name="Van der Waals area" units="m2/kmol" value="6.44E+08" />
<HeatOfFormation name="IG heat of formation" units="J/kmol" value="-4.119E+08" />
<GibbsEnergyOfFormation name="IG Gibbs energy of formation" units="J/kmol" value="-3.242E+08" />
<AbsEntropy name="IG absolute entropy" units="J/kmol/K" value="319800" />
<HeatOfFusionAtMeltingPoint name="Heat of fusion at melting point" units="J/kmol" value="7970000" />
<MatthiasCopemanC1 name="Mathias-Copeman C1" units="_" value="0.96569" />
<HeatOfCombustion name="Standard net heat of combustion LHV" units="J/kmol" value="-1.461E+09" />
<SolidDensity name="Solid density" units="kmol/m3">
  <eqno value="2" />
  <A value="18.35" />
  <B value="-0.011504" />
  <Tmin units="K" value="70.06" />
  <Tmax units="K" value="175.15" />
  </SolidDensity>
<LiquidDensity name="Liquid density" units="kmol/m3">
  <eqno value="105" />
  <A value="0.98331" />
  <B value="0.2428" />
  <C value="506.86" />
  <D value="0.2549" />
  <Tmin units="K" value="175.15" />
  <Tmax units="K" value="506.85" />
  </LiquidDensity>
<VaporPressure name="Vapour pressure" units="Pa">
  <eqno value="101" />
  <A value="83.01817" />
  <B value="-6288.581" />
  <C value="-9.185862" />
  <D value="7.595367E-06" />
  <E value="2" />
  <Tmin units="K" value="175.15" />
  <Tmax units="K" value="506.85" />
  </VaporPressure>
<HeatOfVaporization name="Heat of vaporization" units="J/kmol">
  <eqno value="106" />
  <A value="4.9929E+07" />
  <B value="0.79197" />
  <C value="-0.73136" />
  <D value="0.37429" />
  <E value="-0.019974" />
  <Tmin units="K" value="175.15" />
  <Tmax units="K" value="506.85" />
  </HeatOfVaporization>
<SolidHeatCapacityCp name="Solid heat capacity" units="J/kmol/K">
  <eqno value="1" />
  <A value="104870" />
  <Tmin units="K" value="298" />
  <Tmax units="K" value="0" />
  </SolidHeatCapacityCp>
<LiquidHeatCapacityCp name="Liquid heat capacity" units="J/kmol/K">
  <eqno value="16" />
  <A value="6314.4" />
  <B value="680.3" />
  <C value="4.1767" />
  <D value="0.026148" />
  <E value="-0.000027341" />
  <Tmin units="K" value="207.38" />
  <Tmax units="K" value="373.4" />
  </LiquidHeatCapacityCp>
<IdealGasHeatCapacityCp name="Ideal gas heat capacity" units="J/kmol/K">
  <eqno value="16" />
  <A value="62235" />
  <B value="-685.05" />
  <C value="12.348" />
  <D value="0.00012363" />
  <E value="-8.5641E-08" />
  <Tmin units="K" value="220" />
  <Tmax units="K" value="1500" />
  </IdealGasHeatCapacityCp>
<SecondVirialCoefficient name="Second virial coefficient" units="m3/kmol">
  <eqno value="104" />
  <A value="0.12428" />
  <B value="-150.24" />
  <C value="-26.001" />
  <D value="-830.67" />
  <E value="-2742.3" />
  <Tmin units="K" value="253.4" />
  <Tmax units="K" value="1773.8" />
  </SecondVirialCoefficient>
<LiquidViscosity name="Liquid viscosity" units="Pa.s">
  <eqno value="101" />
  <A value="11.12" />
  <B value="-100.13" />
  <C value="-3.2745" />
  <D value="-5.3051E-07" />
  <E value="2" />
  <Tmin units="K" value="250" />
  <Tmax units="K" value="473" />
  </LiquidViscosity>
<VaporViscosity name="Vapour viscosity" units="Pa.s">
  <eqno value="102" />
  <A value="0.0000013226" />
  <B value="0.48849" />
  <C value="504.21" />
  <D value="4.2341" />
  <Tmin units="K" value="250" />
  <Tmax units="K" value="800" />
  </VaporViscosity>
<LiquidThermalConductivity name="Liquid thermal conductivity" units="W/m/K">
  <eqno value="16" />
  <A value="-0.28416" />
  <B value="27.186" />
  <C value="-0.94457" />
  <D value="0.00083974" />
  <E value="-0.0000024412" />
  <Tmin units="K" value="175.15" />
  <Tmax units="K" value="386.15" />
  </LiquidThermalConductivity>
<VaporThermalConductivity name="Vapour thermal conductivity" units="W/m/K">
  <eqno value="102" />
  <A value="-23257" />
  <B value="-0.1738" />
  <C value="1.0287E+07" />
  <D value="-6.9243E+10" />
  <Tmin units="K" value="175.15" />
  <Tmax units="K" value="1000" />
  </VaporThermalConductivity>
<SurfaceTension name="Surface tension" units="N/m">
  <eqno value="16" />
  <A value="-0.053249" />
  <B value="2.5722" />
  <C value="-2.2027" />
  <D value="-0.00085349" />
  <E value="-0.0000011835" />
  <Tmin units="K" value="175.15" />
  <Tmax units="K" value="506.55" />
  </SurfaceTension>
<RPPHeatCapacityCp name="Ideal gas heat capacity (RPP)" units="J/kmol/K">
  <eqno value="100" />
  <A value="35270" />
  <B value="119.63" />
  <C value="0.27754" />
  <D value="-0.0004099" />
  <E value="1.6055E-07" />
  <Tmin units="K" value="220" />
  <Tmax units="K" value="1000" />
  </RPPHeatCapacityCp>
<RelativeStaticPermittivity name="Relative static permittivity" units="_">
  <eqno value="120" />
  <A value="-5.348193" />
  <B value="-3350" />
  <C value="-20.1" />
  <Tmin units="K" value="279.15" />
  <Tmax units="K" value="449.15" />
  </RelativeStaticPermittivity>
<AntoineVaporPressure name="Antoine" units="Pa">
  <eqno value="10" />
  <A value="21.435" />
  <B value="2829.7" />
  <C value="-44.587" />
  <Tmin units="K" value="305.73" />
  <Tmax units="K" value="454.22" />
  </AntoineVaporPressure>
<LiquidViscosityRPS name="Liquid viscosity (RPS)" units="Pa.s">
  <eqno value="13" />
  <A value="-3.8922" />
  <B value="-0.016855" />
  <C value="0.000011239" />
  <Tmin units="K" value="250" />
  <Tmax units="K" value="425" />
  </LiquidViscosityRPS>
<COSTALDVolume name="COSTLD characteristic volume (V*)" units="m3/kmol" value="0.22619" />
<DiameterLJ name="Lennard Jones diameter" units="m" value="5.04E-10" />
<EnergyLJ name="Lennard Jones energy" units="K" value="418" />
<FullerVolume name="Fuller et al. diffusion volume" units="_" value="73.78" />
<MatthiasCopemanC2 name="Mathias-Copeman C2" units="_" value="0" />
<Parachor name="Parachor" units="kg0.25.m3/s0.5/kmol" value="0.0318" />
<SpecificGravity name="Specific gravity" units="_" value="0.939333" />
<Charge name="Charge" units="_" value="0" />
<CostaldAcentricFactor name="SRK acentric factor" units="_" value="0.32049" />
<WilsonVolume name="Wilson volume" units="m3/kmol" value="0.0798903" />
<UniquacR name="UNIQUAC r" units="_" value="2.8" />
<UniquacQ name="UNIQUAC q" units="_" value="2.58" />
<MatthiasCopemanC3 name="Mathias-Copeman C3" units="_" value="0" />
<ChaoSeaderAcentricFactor name="Chao-Seader acentric factor" units="_" value="0.326" />
<ChaoSeaderSolubilityParameter name="Chao-Seader solubility parameter" units="J0.5/m1.5" value="19435.1" />
<ChaoSeaderLiquidVolume name="Chao-Seader liquid volume" units="m3/kmol" value="0.0798903" />
<UnifacVLE name="UNIFAC">
  <group id="1" value="1" />
  <group id="22" value="1" />
  </UnifacVLE>
<UnifacLLE name="UNIFAC-LLE">
  <group id="1" value="1" />
  <group id="25" value="1" />
  </UnifacLLE>
<Asog name="ASOG">
  <group id="1" value="2" />
  <group id="22" value="1" />
  </Asog>
<Umr name="UMR">
  <group id="1" value="1" />
  <group id="22" value="1" />
  </Umr>
<ModifiedUnifac name="Modified UNIFAC">
  <group id="1" value="1" />
  <group id="21" value="1" />
  </ModifiedUnifac>
<CAS name="CAS number" value="79-20-9" />
<Smiles name="SMILES" value="CC(=O)OC" />
</compound>

