<compound>
<LibraryIndex name="Index" value="1410" />
<CompoundID name="Name" value="methyl isobutyl ether" />
<StructureFormula name="Structure" value="CH3OCH2CH(CH3)CH3" />
<Family name="Family" value="61" />
<CriticalTemperature name="Critical temperature" units="K" value="497" />
<CriticalPressure name="Critical pressure" units="Pa" value="3410000" />
<CriticalVolume name="Critical volume" units="m3/kmol" value="0.329" />
<CriticalCompressibility name="Critical compressibility factor" units="_" value="0.272" />
<NormalBoilingPointTemperature name="Normal boiling point" units="K" value="331.7" />
<MolecularWeight name="Molecular weight" units="kg/kmol" value="88.14818" />
<LiquidVolumeAtNormalBoilingPoint name="Liquid molar volume at normal boiling point" units="m3/kmol" value="0.121242" />
<AcentricityFactor name="Acentric factor" units="_" value="0.307786" />
<RadiusOfGyration name="Radius of gyration" units="m" value="3.608E-10" />
<SolubilityParameter name="Solubility parameter" units="J0.5/m1.5" value="15100" />
<DipoleMoment name="Dipole moment" units="Coulomb.m" value="4.7E-30" />
<VanDerWaalsVolume name="Van der Waals volume" units="m3/kmol" value="0.06172" />
<VanDerWaalsArea name="Van der Waals area" units="m2/kmol" value="8.88E+08" />
<HeatOfFormation name="IG heat of formation" units="J/kmol" value="-2.66E+08" />
<GibbsEnergyOfFormation name="IG Gibbs energy of formation" units="J/kmol" value="-1.07E+08" />
<AbsEntropy name="IG absolute entropy" units="J/kmol/K" value="381000" />
<HeatOfFusionAtMeltingPoint name="Heat of fusion at melting point" units="J/kmol" value="0" />
<HeatOfCombustion name="Standard net heat of combustion LHV" units="J/kmol" value="-3.122E+09" />
<SolidDensity name="Solid density" units="kmol/m3">
  <eqno value="2" />
  <A value="11.4" />
  <B value="-2.3039E-16" />
  <C value="0" />
  <D value="0" />
  <E value="0" />
  <Tmin units="K" value="0" />
  <Tmax units="K" value="9.5" />
  </SolidDensity>
<LiquidDensity name="Liquid density" units="kmol/m3">
  <eqno value="105" />
  <A value="0.83514" />
  <B value="0.27544" />
  <C value="497" />
  <D value="0.27525" />
  <Tmin units="K" value="150" />
  <Tmax units="K" value="497" />
  </LiquidDensity>
<VaporPressure name="Vapour pressure" units="Pa">
  <eqno value="101" />
  <A value="67.83965" />
  <B value="-5584.772" />
  <C value="-6.90156" />
  <D value="5.177794E-06" />
  <E value="2" />
  <Tmin units="K" value="150" />
  <Tmax units="K" value="497" />
  </VaporPressure>
<HeatOfVaporization name="Heat of vaporization" units="J/kmol">
  <eqno value="106" />
  <A value="4.281E+07" />
  <B value="0.34436" />
  <C value="0.050812" />
  <D value="-0.029168" />
  <E value="0.014527" />
  <Tmin units="K" value="150" />
  <Tmax units="K" value="497" />
  </HeatOfVaporization>
<SolidHeatCapacityCp name="Solid heat capacity" units="J/kmol/K">
  <eqno value="1" />
  <A value="158590" />
  <Tmin units="K" value="0" />
  <Tmax units="K" value="497" />
  </SolidHeatCapacityCp>
<LiquidHeatCapacityCp name="Liquid heat capacity" units="J/kmol/K">
  <eqno value="16" />
  <A value="156890" />
  <B value="481.87" />
  <C value="3.1798" />
  <D value="0.023292" />
  <E value="-0.000015219" />
  <Tmin units="K" value="298.15" />
  <Tmax units="K" value="370" />
  </LiquidHeatCapacityCp>
<IdealGasHeatCapacityCp name="Ideal gas heat capacity" units="J/kmol/K">
  <eqno value="16" />
  <A value="84480" />
  <B value="-573.48" />
  <C value="12.645" />
  <D value="0.00036001" />
  <E value="-1.6026E-07" />
  <Tmin units="K" value="150" />
  <Tmax units="K" value="1200" />
  </IdealGasHeatCapacityCp>
<SecondVirialCoefficient name="Second virial coefficient" units="m3/kmol">
  <eqno value="104" />
  <A value="0.20282" />
  <B value="-209.23" />
  <C value="-25.747" />
  <D value="-401.68" />
  <E value="-2768.2" />
  <Tmin units="K" value="248.5" />
  <Tmax units="K" value="1500" />
  </SecondVirialCoefficient>
<LiquidViscosity name="Liquid viscosity" units="Pa.s">
  <eqno value="101" />
  <A value="-6.5049" />
  <B value="776.05" />
  <C value="-0.79051" />
  <D value="0.0000029469" />
  <E value="2" />
  <Tmin units="K" value="150" />
  <Tmax units="K" value="450" />
  </LiquidViscosity>
<VaporViscosity name="Vapour viscosity" units="Pa.s">
  <eqno value="102" />
  <A value="2.7344E-07" />
  <B value="0.65828" />
  <C value="203.42" />
  <D value="-5560.1" />
  <Tmin units="K" value="150" />
  <Tmax units="K" value="1000" />
  </VaporViscosity>
<LiquidThermalConductivity name="Liquid thermal conductivity" units="W/m/K">
  <eqno value="16" />
  <A value="-0.1664" />
  <B value="6.1773" />
  <C value="-1.0308" />
  <D value="-0.0004394" />
  <E value="-9.9213E-07" />
  <Tmin units="K" value="150" />
  <Tmax units="K" value="390" />
  </LiquidThermalConductivity>
<VaporThermalConductivity name="Vapour thermal conductivity" units="W/m/K">
  <eqno value="102" />
  <A value="0.00016088" />
  <B value="0.97231" />
  <C value="471.48" />
  <D value="30281" />
  <Tmin units="K" value="180" />
  <Tmax units="K" value="1000" />
  </VaporThermalConductivity>
<SurfaceTension name="Surface tension" units="N/m">
  <eqno value="16" />
  <A value="-0.010965" />
  <B value="36.367" />
  <C value="-3.3144" />
  <D value="0.00071793" />
  <E value="-0.0000066621" />
  <Tmin units="K" value="150" />
  <Tmax units="K" value="497" />
  </SurfaceTension>
<RPPHeatCapacityCp name="Ideal gas heat capacity (RPP)" units="J/kmol/K">
  <eqno value="4" />
  <A value="9865.2" />
  <B value="481.23" />
  <C value="-0.22823" />
  <D value="0.000035281" />
  <Tmin units="K" value="150" />
  <Tmax units="K" value="1200" />
  </RPPHeatCapacityCp>
<AntoineVaporPressure name="Antoine" units="Pa">
  <eqno value="10" />
  <A value="21.621" />
  <B value="3058" />
  <C value="-30.223" />
  <Tmin units="K" value="150" />
  <Tmax units="K" value="497" />
  </AntoineVaporPressure>
<LiquidViscosityRPS name="Liquid viscosity (RPS)" units="Pa.s">
  <eqno value="12" />
  <A value="-3.2832" />
  <B value="-0.016308" />
  <Tmin units="K" value="150" />
  <Tmax units="K" value="331.7" />
  </LiquidViscosityRPS>
<COSTALDVolume name="COSTLD characteristic volume (V*)" units="m3/kmol" value="0.330209" />
<DiameterLJ name="Lennard Jones diameter" units="m" value="6.144609E-10" />
<EnergyLJ name="Lennard Jones energy" units="K" value="299.032" />
<RacketParameter name="Rackett parameter" units="_" value="0.272" />
<FullerVolume name="Fuller et al. diffusion volume" units="_" value="113.33" />
<Parachor name="Parachor" units="kg0.25.m3/s0.5/kmol" value="0.0437951" />
<SpecificGravity name="Specific gravity" units="_" value="0.738166" />
<Charge name="Charge" units="_" value="0" />
<CostaldAcentricFactor name="SRK acentric factor" units="_" value="0.307786" />
<WilsonVolume name="Wilson volume" units="m3/kmol" value="0.121242" />
<UniquacR name="UNIQUAC r" units="_" value="4.0685" />
<UniquacQ name="UNIQUAC q" units="_" value="3.552" />
<ChaoSeaderAcentricFactor name="Chao-Seader acentric factor" units="_" value="0.307786" />
<ChaoSeaderSolubilityParameter name="Chao-Seader solubility parameter" units="J0.5/m1.5" value="15100" />
<ChaoSeaderLiquidVolume name="Chao-Seader liquid volume" units="m3/kmol" value="0.121242" />
<UnifacVLE name="UNIFAC">
  <group id="1" value="2" />
  <group id="2" value="1" />
  <group id="3" value="1" />
  <group id="25" value="1" />
  </UnifacVLE>
<UnifacLLE name="UNIFAC-LLE">
  <group id="1" value="2" />
  <group id="2" value="1" />
  <group id="3" value="1" />
  <group id="27" value="1" />
  </UnifacLLE>
<Asog name="ASOG">
  <group id="1" value="3" />
  <group id="2" value="1" />
  <group id="3" value="1" />
  <group id="19" value="1" />
  </Asog>
<Umr name="UMR">
  <group id="1" value="2" />
  <group id="2" value="1" />
  <group id="3" value="1" />
  <group id="25" value="1" />
  </Umr>
<ModifiedUnifac name="Modified UNIFAC">
  <group id="1" value="2" />
  <group id="2" value="1" />
  <group id="3" value="1" />
  <group id="24" value="1" />
  </ModifiedUnifac>
<CAS name="CAS number" value="625-44-5" />
<Smiles name="SMILES" value="COCC(C)C" />
</compound>

