<compound>
<LibraryIndex name="Index" value="1054" />
<CompoundID name="Name" value="methyl isobutyl ketone" />
<StructureFormula name="Structure" value="CH3COCH2CH(CH3)2" />
<Family name="Family" value="26" />
<CriticalTemperature name="Critical temperature" units="K" value="574.6" />
<CriticalPressure name="Critical pressure" units="Pa" value="3270000" />
<CriticalVolume name="Critical volume" units="m3/kmol" value="0.3406" />
<CriticalCompressibility name="Critical compressibility factor" units="_" value="0.256" />
<NormalBoilingPointTemperature name="Normal boiling point" units="K" value="389.15" />
<NormalMeltingPointTemperature name="Melting point" units="K" value="189.15" />
<TriplePointTemperature name="Triple point temperature" units="K" value="189.15" />
<TriplePointPressure name="Triple point pressure" units="Pa" value="0.0698742" />
<MolecularWeight name="Molecular weight" units="kg/kmol" value="100.1589" />
<LiquidVolumeAtNormalBoilingPoint name="Liquid molar volume at normal boiling point" units="m3/kmol" value="0.12581" />
<AcentricityFactor name="Acentric factor" units="_" value="0.352" />
<RadiusOfGyration name="Radius of gyration" units="m" value="3.828E-10" />
<SolubilityParameter name="Solubility parameter" units="J0.5/m1.5" value="17420" />
<DipoleMoment name="Dipole moment" units="Coulomb.m" value="9.0E-30" />
<VanDerWaalsVolume name="Van der Waals volume" units="m3/kmol" value="0.06972" />
<VanDerWaalsArea name="Van der Waals area" units="m2/kmol" value="9.88E+08" />
<HeatOfFormation name="IG heat of formation" units="J/kmol" value="-2.88E+08" />
<GibbsEnergyOfFormation name="IG Gibbs energy of formation" units="J/kmol" value="-1.351E+08" />
<AbsEntropy name="IG absolute entropy" units="J/kmol/K" value="407000" />
<HeatOfFusionAtMeltingPoint name="Heat of fusion at melting point" units="J/kmol" value="9710000" />
<MatthiasCopemanC1 name="Mathias-Copeman C1" units="_" value="1.393" />
<HeatOfCombustion name="Standard net heat of combustion LHV" units="J/kmol" value="-3.49E+09" />
<SolidDensity name="Solid density" units="kmol/m3">
  <eqno value="2" />
  <A value="11.236" />
  <B value="-0.0065382" />
  <C value="0" />
  <D value="0" />
  <E value="0" />
  <Tmin units="K" value="75.66" />
  <Tmax units="K" value="189.15" />
  </SolidDensity>
<LiquidDensity name="Liquid density" units="kmol/m3">
  <eqno value="105" />
  <A value="0.70438" />
  <B value="0.26215" />
  <C value="574.6" />
  <D value="0.2872" />
  <Tmin units="K" value="189.15" />
  <Tmax units="K" value="574.6" />
  </LiquidDensity>
<VaporPressure name="Vapour pressure" units="Pa">
  <eqno value="101" />
  <A value="151.9969" />
  <B value="-9958.63" />
  <C value="-19.68914" />
  <D value="0.0000167819" />
  <E value="2" />
  <Tmin units="K" value="189.15" />
  <Tmax units="K" value="574.6" />
  </VaporPressure>
<HeatOfVaporization name="Heat of vaporization" units="J/kmol">
  <eqno value="106" />
  <A value="2.7929E+07" />
  <B value="-4.5647" />
  <C value="14.372" />
  <D value="-16.097" />
  <E value="6.5387" />
  <Tmin units="K" value="189.15" />
  <Tmax units="K" value="574.6" />
  </HeatOfVaporization>
<SolidHeatCapacityCp name="Solid heat capacity" units="J/kmol/K">
  <eqno value="102" />
  <A value="2120" />
  <B value="0.79267" />
  <C value="0" />
  <D value="0" />
  <Tmin units="K" value="50" />
  <Tmax units="K" value="189.15" />
  </SolidHeatCapacityCp>
<LiquidHeatCapacityCp name="Liquid heat capacity" units="J/kmol/K">
  <eqno value="16" />
  <A value="93433" />
  <B value="-8.9197" />
  <C value="10.885" />
  <D value="0.0029916" />
  <E value="-6.6769E-07" />
  <Tmin units="K" value="189.15" />
  <Tmax units="K" value="450" />
  </LiquidHeatCapacityCp>
<IdealGasHeatCapacityCp name="Ideal gas heat capacity" units="J/kmol/K">
  <eqno value="16" />
  <A value="97540" />
  <B value="-634.68" />
  <C value="12.939" />
  <D value="0.000018497" />
  <E value="-1.9665E-08" />
  <Tmin units="K" value="189.15" />
  <Tmax units="K" value="1500.15" />
  </IdealGasHeatCapacityCp>
<SecondVirialCoefficient name="Second virial coefficient" units="m3/kmol">
  <eqno value="104" />
  <A value="0.26403" />
  <B value="-313.96" />
  <C value="-40.054" />
  <D value="-41014" />
  <E value="79808" />
  <Tmin units="K" value="287.3" />
  <Tmax units="K" value="1500" />
  </SecondVirialCoefficient>
<LiquidViscosity name="Liquid viscosity" units="Pa.s">
  <eqno value="101" />
  <A value="-9.5441" />
  <B value="1138.8" />
  <C value="-0.34128" />
  <D value="0.0000016581" />
  <E value="2" />
  <Tmin units="K" value="189.15" />
  <Tmax units="K" value="474" />
  </LiquidViscosity>
<VaporViscosity name="Vapour viscosity" units="Pa.s">
  <eqno value="102" />
  <A value="2.9033E-07" />
  <B value="0.63516" />
  <C value="190.41" />
  <D value="3013.2" />
  <Tmin units="K" value="189.15" />
  <Tmax units="K" value="1000" />
  </VaporViscosity>
<LiquidThermalConductivity name="Liquid thermal conductivity" units="W/m/K">
  <eqno value="16" />
  <A value="0.05085" />
  <B value="-96.32" />
  <C value="-0.95078" />
  <D value="-0.0031661" />
  <E value="-0.0000020547" />
  <Tmin units="K" value="171.42" />
  <Tmax units="K" value="451.42" />
  </LiquidThermalConductivity>
<VaporThermalConductivity name="Vapour thermal conductivity" units="W/m/K">
  <eqno value="102" />
  <A value="-874190" />
  <B value="0.020464" />
  <C value="1.7911E+07" />
  <D value="-8.1274E+12" />
  <Tmin units="K" value="189.15" />
  <Tmax units="K" value="1000" />
  </VaporThermalConductivity>
<SurfaceTension name="Surface tension" units="N/m">
  <eqno value="16" />
  <A value="-0.0053825" />
  <B value="238.91" />
  <C value="-5.4341" />
  <D value="0.0080583" />
  <E value="-0.000014754" />
  <Tmin units="K" value="189.15" />
  <Tmax units="K" value="574.6" />
  </SurfaceTension>
<RPPHeatCapacityCp name="Ideal gas heat capacity (RPP)" units="J/kmol/K">
  <eqno value="4" />
  <A value="10053" />
  <B value="541.95" />
  <C value="-0.29513" />
  <D value="0.000061306" />
  <Tmin units="K" value="189.15" />
  <Tmax units="K" value="1500.15" />
  </RPPHeatCapacityCp>
<AntoineVaporPressure name="Antoine" units="Pa">
  <eqno value="10" />
  <A value="21.464" />
  <B value="3468.2" />
  <C value="-40.674" />
  <Tmin units="K" value="348.15" />
  <Tmax units="K" value="513.74" />
  </AntoineVaporPressure>
<LiquidViscosityRPS name="Liquid viscosity (RPS)" units="Pa.s">
  <eqno value="12" />
  <A value="-2.8866" />
  <B value="-0.015149" />
  <Tmin units="K" value="189.15" />
  <Tmax units="K" value="389.15" />
  </LiquidViscosityRPS>
<COSTALDVolume name="COSTLD characteristic volume (V*)" units="m3/kmol" value="0.375279" />
<DiameterLJ name="Lennard Jones diameter" units="m" value="6.685059E-10" />
<EnergyLJ name="Lennard Jones energy" units="K" value="277.9347" />
<RacketParameter name="Rackett parameter" units="_" value="0.256" />
<FullerVolume name="Fuller et al. diffusion volume" units="_" value="129.23" />
<MatthiasCopemanC2 name="Mathias-Copeman C2" units="_" value="-3.0405" />
<Parachor name="Parachor" units="kg0.25.m3/s0.5/kmol" value="0.0492845" />
<SpecificGravity name="Specific gravity" units="_" value="0.805767" />
<Charge name="Charge" units="_" value="0" />
<CostaldAcentricFactor name="SRK acentric factor" units="_" value="0.352" />
<WilsonVolume name="Wilson volume" units="m3/kmol" value="0.12581" />
<UniquacR name="UNIQUAC r" units="_" value="4.5959" />
<UniquacQ name="UNIQUAC q" units="_" value="3.952" />
<MatthiasCopemanC3 name="Mathias-Copeman C3" units="_" value="6.4011" />
<ChaoSeaderAcentricFactor name="Chao-Seader acentric factor" units="_" value="0.352" />
<ChaoSeaderSolubilityParameter name="Chao-Seader solubility parameter" units="J0.5/m1.5" value="17420" />
<ChaoSeaderLiquidVolume name="Chao-Seader liquid volume" units="m3/kmol" value="0.12581" />
<UnifacVLE name="UNIFAC">
  <group id="1" value="2" />
  <group id="2" value="1" />
  <group id="3" value="1" />
  <group id="19" value="1" />
  </UnifacVLE>
<UnifacLLE name="UNIFAC-LLE">
  <group id="1" value="2" />
  <group id="2" value="1" />
  <group id="3" value="1" />
  <group id="19" value="1" />
  </UnifacLLE>
<Asog name="ASOG">
  <group id="1" value="3" />
  <group id="2" value="1" />
  <group id="3" value="1" />
  <group id="18" value="1" />
  </Asog>
<Umr name="UMR">
  <group id="1" value="2" />
  <group id="2" value="1" />
  <group id="3" value="1" />
  <group id="19" value="1" />
  </Umr>
<ModifiedUnifac name="Modified UNIFAC">
  <group id="1" value="2" />
  <group id="2" value="1" />
  <group id="3" value="1" />
  <group id="18" value="1" />
  </ModifiedUnifac>
<CAS name="CAS number" value="108-10-1" />
<Smiles name="SMILES" value="CC(C)CC(=O)C" />
</compound>

