<compound>
<LibraryIndex name="Index" value="1351" />
<CompoundID name="Name" value="methyl methacrylate" />
<StructureFormula name="Structure" value="CH2C(CH3)COOCH3" />
<Family name="Family" value="59" />
<CriticalTemperature name="Critical temperature" units="K" value="563.15" />
<CriticalPressure name="Critical pressure" units="Pa" value="3670000" />
<CriticalVolume name="Critical volume" units="m3/kmol" value="0.324" />
<CriticalCompressibility name="Critical compressibility factor" units="_" value="0.253" />
<NormalBoilingPointTemperature name="Normal boiling point" units="K" value="374.15" />
<NormalMeltingPointTemperature name="Melting point" units="K" value="225.15" />
<TriplePointTemperature name="Triple point temperature" units="K" value="225.6" />
<TriplePointPressure name="Triple point pressure" units="Pa" value="19.0855" />
<MolecularWeight name="Molecular weight" units="kg/kmol" value="100.1158" />
<LiquidVolumeAtNormalBoilingPoint name="Liquid molar volume at normal boiling point" units="m3/kmol" value="0.106736" />
<AcentricityFactor name="Acentric factor" units="_" value="0.280233" />
<RadiusOfGyration name="Radius of gyration" units="m" value="3.62E-10" />
<SolubilityParameter name="Solubility parameter" units="J0.5/m1.5" value="18530" />
<DipoleMoment name="Dipole moment" units="Coulomb.m" value="6.57E-30" />
<VanDerWaalsVolume name="Van der Waals volume" units="m3/kmol" value="0.05949" />
<VanDerWaalsArea name="Van der Waals area" units="m2/kmol" value="8.91E+08" />
<HeatOfFormation name="IG heat of formation" units="J/kmol" value="-3.6E+08" />
<GibbsEnergyOfFormation name="IG Gibbs energy of formation" units="J/kmol" value="-2.54E+08" />
<AbsEntropy name="IG absolute entropy" units="J/kmol/K" value="401000" />
<HeatOfFusionAtMeltingPoint name="Heat of fusion at melting point" units="J/kmol" value="1.44348E+07" />
<MatthiasCopemanC1 name="Mathias-Copeman C1" units="_" value="1.27622" />
<HeatOfCombustion name="Standard net heat of combustion LHV" units="J/kmol" value="-2.54E+09" />
<SolidDensity name="Solid density" units="kmol/m3">
  <eqno value="2" />
  <A value="12.912" />
  <B value="-0.0063843" />
  <C value="0" />
  <D value="0" />
  <E value="0" />
  <Tmin units="K" value="89.98" />
  <Tmax units="K" value="224.95" />
  </SolidDensity>
<LiquidDensity name="Liquid density" units="kmol/m3">
  <eqno value="105" />
  <A value="0.91648" />
  <B value="0.27205" />
  <C value="563.15" />
  <D value="0.3201" />
  <Tmin units="K" value="224.95" />
  <Tmax units="K" value="548.05" />
  </LiquidDensity>
<VaporPressure name="Vapour pressure" units="Pa">
  <eqno value="101" />
  <A value="129.5007" />
  <B value="-8907.818" />
  <C value="-16.17497" />
  <D value="0.000012098" />
  <E value="2" />
  <Tmin units="K" value="224.95" />
  <Tmax units="K" value="566" />
  </VaporPressure>
<HeatOfVaporization name="Heat of vaporization" units="J/kmol">
  <eqno value="106" />
  <A value="5.397285E+07" />
  <B value="-0.0862845" />
  <C value="1.857786" />
  <D value="-2.127696" />
  <E value="0.775243" />
  <Tmin units="K" value="224.95" />
  <Tmax units="K" value="548.05" />
  </HeatOfVaporization>
<SolidHeatCapacityCp name="Solid heat capacity" units="J/kmol/K">
  <eqno value="100" />
  <A value="-22371" />
  <B value="1615.2" />
  <C value="-7.3896" />
  <D value="0.0056281" />
  <E value="0.000054354" />
  <Tmin units="K" value="20" />
  <Tmax units="K" value="210" />
  </SolidHeatCapacityCp>
<LiquidHeatCapacityCp name="Liquid heat capacity" units="J/kmol/K">
  <eqno value="16" />
  <A value="45251" />
  <B value="733.56" />
  <C value="4.0201" />
  <D value="0.024183" />
  <E value="-0.000020347" />
  <Tmin units="K" value="224.95" />
  <Tmax units="K" value="373.45" />
  </LiquidHeatCapacityCp>
<IdealGasHeatCapacityCp name="Ideal gas heat capacity" units="J/kmol/K">
  <eqno value="16" />
  <A value="40862.92" />
  <B value="-408.0793" />
  <C value="12.53452" />
  <D value="0.000265188" />
  <E value="-1.105927E-07" />
  <Tmin units="K" value="273" />
  <Tmax units="K" value="1500" />
  </IdealGasHeatCapacityCp>
<SecondVirialCoefficient name="Second virial coefficient" units="m3/kmol">
  <eqno value="104" />
  <A value="0.20274" />
  <B value="-240.84" />
  <C value="-40.536" />
  <D value="6484.6" />
  <E value="-27053" />
  <Tmin units="K" value="282" />
  <Tmax units="K" value="1800" />
  </SecondVirialCoefficient>
<LiquidViscosity name="Liquid viscosity" units="Pa.s">
  <eqno value="101" />
  <A value="-8.2342" />
  <B value="780.75" />
  <C value="-0.30393" />
  <D value="-0.0000019127" />
  <E value="2" />
  <Tmin units="K" value="260" />
  <Tmax units="K" value="463" />
  </LiquidViscosity>
<VaporViscosity name="Vapour viscosity" units="Pa.s">
  <eqno value="102" />
  <A value="4.0508E-07" />
  <B value="0.64362" />
  <C value="435.99" />
  <D value="-25064" />
  <Tmin units="K" value="224.95" />
  <Tmax units="K" value="1000" />
  </VaporViscosity>
<LiquidThermalConductivity name="Liquid thermal conductivity" units="W/m/K">
  <eqno value="16" />
  <A value="0.093744" />
  <B value="-51.297" />
  <C value="-0.18289" />
  <D value="-0.0078351" />
  <E value="-0.0000030405" />
  <Tmin units="K" value="290.15" />
  <Tmax units="K" value="363.45" />
  </LiquidThermalConductivity>
<VaporThermalConductivity name="Vapour thermal conductivity" units="W/m/K">
  <eqno value="102" />
  <A value="0.0023506" />
  <B value="0.61168" />
  <C value="848.43" />
  <D value="252520" />
  <Tmin units="K" value="225.6" />
  <Tmax units="K" value="1000" />
  </VaporThermalConductivity>
<SurfaceTension name="Surface tension" units="N/m">
  <eqno value="16" />
  <A value="-0.035425" />
  <B value="-58.877" />
  <C value="-1.5763" />
  <D value="-0.0037063" />
  <E value="0.0000012939" />
  <Tmin units="K" value="224.95" />
  <Tmax units="K" value="548.05" />
  </SurfaceTension>
<RPPHeatCapacityCp name="Ideal gas heat capacity (RPP)" units="J/kmol/K">
  <eqno value="4" />
  <A value="-10357" />
  <B value="514.6" />
  <C value="-0.32166" />
  <D value="0.000073928" />
  <Tmin units="K" value="273" />
  <Tmax units="K" value="1500" />
  </RPPHeatCapacityCp>
<AntoineVaporPressure name="Antoine" units="Pa">
  <eqno value="10" />
  <A value="20.565" />
  <B value="2703.4" />
  <C value="-74.211" />
  <Tmin units="K" value="340" />
  <Tmax units="K" value="494.2" />
  </AntoineVaporPressure>
<LiquidViscosityRPS name="Liquid viscosity (RPS)" units="Pa.s">
  <eqno value="12" />
  <A value="-4.6879" />
  <B value="-0.0094364" />
  <Tmin units="K" value="260" />
  <Tmax units="K" value="400" />
  </LiquidViscosityRPS>
<COSTALDVolume name="COSTLD characteristic volume (V*)" units="m3/kmol" value="0.31782" />
<DiameterLJ name="Lennard Jones diameter" units="m" value="6.668304E-10" />
<EnergyLJ name="Lennard Jones energy" units="K" value="261.0785" />
<RacketParameter name="Rackett parameter" units="_" value="0.253" />
<FullerVolume name="Fuller et al. diffusion volume" units="_" value="110.2" />
<MatthiasCopemanC2 name="Mathias-Copeman C2" units="_" value="0" />
<Parachor name="Parachor" units="kg0.25.m3/s0.5/kmol" value="0.0432757" />
<SpecificGravity name="Specific gravity" units="_" value="0.94966" />
<Charge name="Charge" units="_" value="0" />
<CostaldAcentricFactor name="SRK acentric factor" units="_" value="0.280233" />
<WilsonVolume name="Wilson volume" units="m3/kmol" value="0.106736" />
<UniquacR name="UNIQUAC r" units="_" value="3.9215" />
<UniquacQ name="UNIQUAC q" units="_" value="3.564" />
<MatthiasCopemanC3 name="Mathias-Copeman C3" units="_" value="0" />
<ChaoSeaderAcentricFactor name="Chao-Seader acentric factor" units="_" value="0.280233" />
<ChaoSeaderSolubilityParameter name="Chao-Seader solubility parameter" units="J0.5/m1.5" value="18530" />
<ChaoSeaderLiquidVolume name="Chao-Seader liquid volume" units="m3/kmol" value="0.106736" />
<UnifacVLE name="UNIFAC">
  <group id="1" value="2" />
  <group id="7" value="1" />
  <group id="77" value="1" />
  </UnifacVLE>
<UnifacLLE name="UNIFAC-LLE">
  <group id="1" value="1" />
  <group id="8" value="1" />
  <group id="25" value="1" />
  </UnifacLLE>
<Asog name="ASOG">
  <group id="1" value="2" />
  <group id="7" value="1" />
  <group id="22" value="1" />
  </Asog>
<Umr name="UMR">
  <group id="1" value="2" />
  <group id="7" value="1" />
  <group id="77" value="1" />
  </Umr>
<ModifiedUnifac name="Modified UNIFAC">
  <group id="1" value="2" />
  <group id="7" value="1" />
  <group id="77" value="1" />
  </ModifiedUnifac>
<CAS name="CAS number" value="80-62-6" />
<Smiles name="SMILES" value="C=C(C)C(=O)OC" />
</compound>

