<compound>
<LibraryIndex name="Index" value="1" />
<CompoundID name="Name" value="methane" />
<StructureFormula name="Structure" value="CH4" />
<Family name="Family" value="1" />
<CriticalTemperature name="Critical temperature" units="K" value="190.56" />
<CriticalPressure name="Critical pressure" units="Pa" value="4599000" />
<CriticalVolume name="Critical volume" units="m3/kmol" value="0.0986" />
<CriticalCompressibility name="Critical compressibility factor" units="_" value="0.286" />
<NormalBoilingPointTemperature name="Normal boiling point" units="K" value="111.66" />
<NormalMeltingPointTemperature name="Melting point" units="K" value="90.694" />
<TriplePointTemperature name="Triple point temperature" units="K" value="90.694" />
<TriplePointPressure name="Triple point pressure" units="Pa" value="11696" />
<MolecularWeight name="Molecular weight" units="kg/kmol" value="16.04246" />
<LiquidVolumeAtNormalBoilingPoint name="Liquid molar volume at normal boiling point" units="m3/kmol" value="0.03554" />
<AcentricityFactor name="Acentric factor" units="_" value="0.011" />
<RadiusOfGyration name="Radius of gyration" units="m" value="1.118E-10" />
<SolubilityParameter name="Solubility parameter" units="J0.5/m1.5" value="11600" />
<DipoleMoment name="Dipole moment" units="Coulomb.m" value="0" />
<VanDerWaalsVolume name="Van der Waals volume" units="m3/kmol" value="0.01705" />
<VanDerWaalsArea name="Van der Waals area" units="m2/kmol" value="2.88E+08" />
<HeatOfFormation name="IG heat of formation" units="J/kmol" value="-7.452E+07" />
<GibbsEnergyOfFormation name="IG Gibbs energy of formation" units="J/kmol" value="-5.049E+07" />
<AbsEntropy name="IG absolute entropy" units="J/kmol/K" value="186270" />
<HeatOfFusionAtMeltingPoint name="Heat of fusion at melting point" units="J/kmol" value="941400" />
<MatthiasCopemanC1 name="Mathias-Copeman C1" units="_" value="0.49258" />
<HeatOfCombustion name="Standard net heat of combustion LHV" units="J/kmol" value="-8.0262E+08" />
<SolidDensity name="Solid density" units="kmol/m3">
  <eqno value="2" />
  <A value="33.457" />
  <B value="-0.033547" />
  <C value="-0.000155" />
  <Tmin units="K" value="23.15" />
  <Tmax units="K" value="90.69" />
  </SolidDensity>
<LiquidDensity name="Liquid density" units="kmol/m3">
  <eqno value="105" />
  <A value="1.894" />
  <B value="0.23603" />
  <C value="191.05" />
  <D value="0.21974" />
  <Tmin units="K" value="90.68" />
  <Tmax units="K" value="191.04" />
  </LiquidDensity>
<VaporPressure name="Vapour pressure" units="Pa">
  <eqno value="101" />
  <A value="39.98844" />
  <B value="-1337.308" />
  <C value="-3.580049" />
  <D value="0.0000320698" />
  <E value="2" />
  <Tmin units="K" value="83.65" />
  <Tmax units="K" value="191.03" />
  </VaporPressure>
<HeatOfVaporization name="Heat of vaporization" units="J/kmol">
  <eqno value="106" />
  <A value="1.4418E+07" />
  <B value="2.3055" />
  <C value="-5.4199" />
  <D value="5.658" />
  <E value="-2.1286" />
  <Tmin units="K" value="90.67" />
  <Tmax units="K" value="190.55" />
  </HeatOfVaporization>
<SolidHeatCapacityCp name="Solid heat capacity" units="J/kmol/K">
  <eqno value="100" />
  <A value="-3039.8" />
  <B value="1292.4" />
  <C value="-15.448" />
  <D value="0.082442" />
  <E value="-0.000070636" />
  <Tmin units="K" value="22.85" />
  <Tmax units="K" value="90.67" />
  </SolidHeatCapacityCp>
<LiquidHeatCapacityCp name="Liquid heat capacity" units="J/kmol/K">
  <eqno value="16" />
  <A value="61157" />
  <B value="5034.1" />
  <C value="-48.913" />
  <D value="-0.22998" />
  <E value="0.0022243" />
  <Tmin units="K" value="88.71" />
  <Tmax units="K" value="190" />
  </LiquidHeatCapacityCp>
<IdealGasHeatCapacityCp name="Ideal gas heat capacity" units="J/kmol/K">
  <eqno value="16" />
  <A value="33151.9" />
  <B value="-1220.001" />
  <C value="12.0907" />
  <D value="-0.000384791" />
  <E value="9.896403E-08" />
  <Tmin units="K" value="10" />
  <Tmax units="K" value="1500" />
  </IdealGasHeatCapacityCp>
<SecondVirialCoefficient name="Second virial coefficient" units="m3/kmol">
  <eqno value="104" />
  <A value="0.051983" />
  <B value="-25.636" />
  <C value="-0.24722" />
  <D value="0.42759" />
  <E value="-0.39805" />
  <Tmin units="K" value="102" />
  <Tmax units="K" value="1500" />
  </SecondVirialCoefficient>
<LiquidViscosity name="Liquid viscosity" units="Pa.s">
  <eqno value="101" />
  <A value="-45.328" />
  <B value="724.39" />
  <C value="6.5917" />
  <D value="-0.00010373" />
  <E value="2" />
  <Tmin units="K" value="88.15" />
  <Tmax units="K" value="190" />
  </LiquidViscosity>
<VaporViscosity name="Vapour viscosity" units="Pa.s">
  <eqno value="102" />
  <A value="5.3432E-07" />
  <B value="0.58831" />
  <C value="114.58" />
  <D value="-1338.5" />
  <Tmin units="K" value="90" />
  <Tmax units="K" value="1000" />
  </VaporViscosity>
<LiquidThermalConductivity name="Liquid thermal conductivity" units="W/m/K">
  <eqno value="16" />
  <A value="0.011567" />
  <B value="-46.041" />
  <C value="0.10435" />
  <D value="-0.012133" />
  <E value="-0.0000051716" />
  <Tmin units="K" value="90.69" />
  <Tmax units="K" value="180" />
  </LiquidThermalConductivity>
<VaporThermalConductivity name="Vapour thermal conductivity" units="W/m/K">
  <eqno value="102" />
  <A value="0.0000074705" />
  <B value="1.4432" />
  <C value="-57.569" />
  <D value="587.82" />
  <Tmin units="K" value="90.694" />
  <Tmax units="K" value="600" />
  </VaporThermalConductivity>
<SurfaceTension name="Surface tension" units="N/m">
  <eqno value="16" />
  <A value="-0.040703" />
  <B value="-6.9523" />
  <C value="-2.3114" />
  <D value="-0.0055565" />
  <E value="0.0000057595" />
  <Tmin units="K" value="90" />
  <Tmax units="K" value="193.15" />
  </SurfaceTension>
<RPPHeatCapacityCp name="Ideal gas heat capacity (RPP)" units="J/kmol/K">
  <eqno value="100" />
  <A value="37981" />
  <B value="-74.622" />
  <C value="0.3019" />
  <D value="-0.00028327" />
  <E value="9.0711E-08" />
  <Tmin units="K" value="50" />
  <Tmax units="K" value="1000" />
  </RPPHeatCapacityCp>
<RelativeStaticPermittivity name="Relative static permittivity" units="_">
  <eqno value="120" />
  <A value="-7.274133" />
  <B value="-850" />
  <C value="-5.1" />
  <Tmin units="K" value="80.81667" />
  <Tmax units="K" value="250.8167" />
  </RelativeStaticPermittivity>
<AntoineVaporPressure name="Antoine" units="Pa">
  <eqno value="10" />
  <A value="20.701" />
  <B value="1035" />
  <C value="1.2704" />
  <Tmin units="K" value="114.61" />
  <Tmax units="K" value="170.99" />
  </AntoineVaporPressure>
<LiquidViscosityRPS name="Liquid viscosity (RPS)" units="Pa.s">
  <eqno value="13" />
  <A value="-6.4555" />
  <B value="-0.023994" />
  <C value="0.000010045" />
  <Tmin units="K" value="88.15" />
  <Tmax units="K" value="190" />
  </LiquidViscosityRPS>
<COSTALDVolume name="COSTLD characteristic volume (V*)" units="m3/kmol" value="0.09939" />
<DiameterLJ name="Lennard Jones diameter" units="m" value="3.871667E-10" />
<EnergyLJ name="Lennard Jones energy" units="K" value="137.3608" />
<RacketParameter name="Rackett parameter" units="_" value="0.2876" />
<FullerVolume name="Fuller et al. diffusion volume" units="_" value="25.14" />
<MatthiasCopemanC2 name="Mathias-Copeman C2" units="_" value="0" />
<Parachor name="Parachor" units="kg0.25.m3/s0.5/kmol" value="0.0129" />
<SpecificGravity name="Specific gravity" units="_" value="0.299394" />
<Charge name="Charge" units="_" value="0" />
<CostaldAcentricFactor name="SRK acentric factor" units="_" value="0.0074" />
<WilsonVolume name="Wilson volume" units="m3/kmol" value="0.0378392" />
<UniquacR name="UNIQUAC r" units="_" value="1.1239" />
<UniquacQ name="UNIQUAC q" units="_" value="1.152" />
<UniquacQP name="UNIQUAC q'" units="_" value="0" />
<ApiSrkS2 name="API-SRK s2" units="_" value="-0.012223" />
<MatthiasCopemanC3 name="Mathias-Copeman C3" units="_" value="0" />
<ChaoSeaderAcentricFactor name="Chao-Seader acentric factor" units="_" value="0" />
<ChaoSeaderSolubilityParameter name="Chao-Seader solubility parameter" units="J0.5/m1.5" value="11618.44" />
<ChaoSeaderLiquidVolume name="Chao-Seader liquid volume" units="m3/kmol" value="0.0378392" />
<GCmethod name="PPR78">
  <group id="5" value="1" />
  </GCmethod>
<Umr name="UMR">
  <group id="224" value="1" />
  </Umr>
<CAS name="CAS number" value="74-82-8" />
<Smiles name="SMILES" value="C" />
</compound>

