<compound>
<LibraryIndex name="Index" value="3311" />
<CompoundID name="Name" value="methyl palmitate" />
<StructureFormula name="Structure" value="CH3(CH2)14COOCH3" />
<Family name="Family" value="58" />
<CriticalTemperature name="Critical temperature" units="K" value="762.2" />
<CriticalPressure name="Critical pressure" units="Pa" value="1235000" />
<CriticalVolume name="Critical volume" units="m3/kmol" value="1.15" />
<CriticalCompressibility name="Critical compressibility factor" units="_" value="0.224" />
<NormalBoilingPointTemperature name="Normal boiling point" units="K" value="469.15" />
<NormalMeltingPointTemperature name="Melting point" units="K" value="303.1" />
<TriplePointTemperature name="Triple point temperature" units="K" value="301.85" />
<TriplePointPressure name="Triple point pressure" units="Pa" value="0.0039997" />
<MolecularWeight name="Molecular weight" units="kg/kmol" value="270.451" />
<LiquidVolumeAtNormalBoilingPoint name="Liquid molar volume at normal boiling point" units="m3/kmol" value="0.3154" />
<AcentricityFactor name="Acentric factor" units="_" value="0.776457" />
<RadiusOfGyration name="Radius of gyration" units="m" value="7.953E-10" />
<SolubilityParameter name="Solubility parameter" units="J0.5/m1.5" value="16680" />
<DipoleMoment name="Dipole moment" units="Coulomb.m" value="5.4703E-30" />
<VanDerWaalsVolume name="Van der Waals volume" units="m3/kmol" value="0.1858" />
<VanDerWaalsArea name="Van der Waals area" units="m2/kmol" value="2.534E+09" />
<HeatOfFormation name="IG heat of formation" units="J/kmol" value="-7.007E+08" />
<GibbsEnergyOfFormation name="IG Gibbs energy of formation" units="J/kmol" value="-2.54E+08" />
<AbsEntropy name="IG absolute entropy" units="J/kmol/K" value="1026000" />
<HeatOfFusionAtMeltingPoint name="Heat of fusion at melting point" units="J/kmol" value="5.382E+07" />
<HeatOfCombustion name="Standard net heat of combustion LHV" units="J/kmol" value="-9.955E+09" />
<SolidDensity name="Solid density" units="kmol/m3">
  <eqno value="100" />
  <A value="4.0588" />
  <B value="-0.0016741" />
  <C value="0" />
  <D value="0" />
  <E value="0" />
  <Tmin units="K" value="121" />
  <Tmax units="K" value="303.05" />
  </SolidDensity>
<LiquidDensity name="Liquid density" units="kmol/m3">
  <eqno value="105" />
  <A value="0.19488" />
  <B value="0.22321" />
  <C value="762.2" />
  <D value="0.2975" />
  <Tmin units="K" value="303.05" />
  <Tmax units="K" value="762.2" />
  </LiquidDensity>
<VaporPressure name="Vapour pressure" units="Pa">
  <eqno value="101" />
  <A value="110.99" />
  <B value="-14440" />
  <C value="-11.785" />
  <D value="1.0066E-18" />
  <E value="6" />
  <Tmin units="K" value="303.05" />
  <Tmax units="K" value="762.2" />
  </VaporPressure>
<HeatOfVaporization name="Heat of vaporization" units="J/kmol">
  <eqno value="106" />
  <A value="1.3001E+08" />
  <B value="1.1283" />
  <C value="-1.3017" />
  <D value="0.68949" />
  <E value="0" />
  <Tmin units="K" value="303.05" />
  <Tmax units="K" value="762.2" />
  </HeatOfVaporization>
<SolidHeatCapacityCp name="Solid heat capacity" units="J/kmol/K">
  <eqno value="100" />
  <A value="-42849" />
  <B value="3779.5" />
  <C value="-17.933" />
  <D value="0.04599" />
  <E value="-0.000029079" />
  <Tmin units="K" value="73" />
  <Tmax units="K" value="303.05" />
  </SolidHeatCapacityCp>
<LiquidHeatCapacityCp name="Liquid heat capacity" units="J/kmol/K">
  <eqno value="100" />
  <A value="359530" />
  <B value="678.9" />
  <C value="0" />
  <D value="0" />
  <E value="0" />
  <Tmin units="K" value="303.05" />
  <Tmax units="K" value="597.7" />
  </LiquidHeatCapacityCp>
<IdealGasHeatCapacityCp name="Ideal gas heat capacity" units="J/kmol/K">
  <eqno value="107" />
  <A value="327170" />
  <B value="630350" />
  <C value="802.12" />
  <D value="383110" />
  <E value="2448.3" />
  <Tmin units="K" value="298.15" />
  <Tmax units="K" value="1500" />
  </IdealGasHeatCapacityCp>
<SecondVirialCoefficient name="Second virial coefficient" units="m3/kmol">
  <eqno value="104" />
  <A value="0.86879" />
  <B value="-918.15" />
  <C value="-6.652E+08" />
  <D value="-5.2739E+21" />
  <E value="3.6345E+23" />
  <Tmin units="K" value="381.1" />
  <Tmax units="K" value="1500" />
  </SecondVirialCoefficient>
<LiquidViscosity name="Liquid viscosity" units="Pa.s">
  <eqno value="101" />
  <A value="-11.619" />
  <B value="1894.7" />
  <C value="0" />
  <D value="0" />
  <E value="0" />
  <Tmin units="K" value="303.05" />
  <Tmax units="K" value="597.7" />
  </LiquidViscosity>
<VaporViscosity name="Vapour viscosity" units="Pa.s">
  <eqno value="102" />
  <A value="1.6416E-08" />
  <B value="0.96884" />
  <C value="0" />
  <D value="0" />
  <Tmin units="K" value="303.05" />
  <Tmax units="K" value="1000" />
  </VaporViscosity>
<LiquidThermalConductivity name="Liquid thermal conductivity" units="W/m/K">
  <eqno value="100" />
  <A value="0.19823" />
  <B value="-0.0001917" />
  <C value="0" />
  <D value="0" />
  <E value="0" />
  <Tmin units="K" value="303.05" />
  <Tmax units="K" value="597.7" />
  </LiquidThermalConductivity>
<VaporThermalConductivity name="Vapour thermal conductivity" units="W/m/K">
  <eqno value="102" />
  <A value="0.000001803" />
  <B value="1.4857" />
  <C value="0" />
  <D value="0" />
  <Tmin units="K" value="597.7" />
  <Tmax units="K" value="1000" />
  </VaporThermalConductivity>
<SurfaceTension name="Surface tension" units="N/m">
  <eqno value="116" />
  <A value="0" />
  <B value="0" />
  <C value="0" />
  <D value="0.0252129" />
  <E value="0.0252129" />
  <Tmin units="K" value="303.1" />
  <Tmax units="K" value="762.2" />
  </SurfaceTension>
<AntoineVaporPressure name="Antoine" units="Pa">
  <eqno value="10" />
  <A value="21.22062" />
  <B value="4659.862" />
  <C value="-124.4737" />
  <Tmin units="K" value="303" />
  <Tmax units="K" value="762" />
  </AntoineVaporPressure>
<FullerVolume name="Fuller et al. diffusion volume" units="_" value="361.06" />
<Parachor name="Parachor" units="kg0.25.m3/s0.5/kmol" value="0.130668" />
<SpecificGravity name="Specific gravity" units="_" value="0.852" />
<Charge name="Charge" units="_" value="0" />
<CostaldAcentricFactor name="SRK acentric factor" units="_" value="0.776457" />
<WilsonVolume name="Wilson volume" units="m3/kmol" value="0.3154" />
<UniquacR name="UNIQUAC r" units="_" value="12.2458" />
<UniquacQ name="UNIQUAC q" units="_" value="10.136" />
<ChaoSeaderAcentricFactor name="Chao-Seader acentric factor" units="_" value="0.776457" />
<ChaoSeaderSolubilityParameter name="Chao-Seader solubility parameter" units="J0.5/m1.5" value="16680" />
<ChaoSeaderLiquidVolume name="Chao-Seader liquid volume" units="m3/kmol" value="0.3154" />
<UnifacVLE name="UNIFAC">
  <group id="1" value="1" />
  <group id="2" value="14" />
  <group id="22" value="1" />
  </UnifacVLE>
<UnifacLLE name="UNIFAC-LLE">
  <group id="1" value="1" />
  <group id="2" value="14" />
  <group id="25" value="1" />
  </UnifacLLE>
<Asog name="ASOG">
  <group id="1" value="2" />
  <group id="2" value="14" />
  <group id="22" value="1" />
  </Asog>
<Umr name="UMR">
  <group id="1" value="1" />
  <group id="2" value="14" />
  <group id="22" value="1" />
  </Umr>
<ModifiedUnifac name="Modified UNIFAC">
  <group id="1" value="1" />
  <group id="2" value="14" />
  <group id="21" value="1" />
  </ModifiedUnifac>
<CAS name="CAS number" value="112-39-0" />
<Smiles name="SMILES" value="CCCCCCCCCCCCCCCC(=O)OC" />
</compound>

