<compound>
<LibraryIndex name="Index" value="1301" />
<CompoundID name="Name" value="methyl formate" />
<StructureFormula name="Structure" value="HCOOCH3" />
<Family name="Family" value="55" />
<CriticalTemperature name="Critical temperature" units="K" value="487.2" />
<CriticalPressure name="Critical pressure" units="Pa" value="6000000" />
<CriticalVolume name="Critical volume" units="m3/kmol" value="0.172" />
<CriticalCompressibility name="Critical compressibility factor" units="_" value="0.255" />
<NormalBoilingPointTemperature name="Normal boiling point" units="K" value="304.9" />
<NormalMeltingPointTemperature name="Melting point" units="K" value="174.15" />
<TriplePointTemperature name="Triple point temperature" units="K" value="174.15" />
<TriplePointPressure name="Triple point pressure" units="Pa" value="6.88085" />
<MolecularWeight name="Molecular weight" units="kg/kmol" value="60.05196" />
<LiquidVolumeAtNormalBoilingPoint name="Liquid molar volume at normal boiling point" units="m3/kmol" value="0.06214" />
<AcentricityFactor name="Acentric factor" units="_" value="0.253" />
<RadiusOfGyration name="Radius of gyration" units="m" value="2.387E-10" />
<SolubilityParameter name="Solubility parameter" units="J0.5/m1.5" value="20500" />
<DipoleMoment name="Dipole moment" units="Coulomb.m" value="5.9E-30" />
<VanDerWaalsVolume name="Van der Waals volume" units="m3/kmol" value="0.03251" />
<VanDerWaalsArea name="Van der Waals area" units="m2/kmol" value="5.09E+08" />
<HeatOfFormation name="IG heat of formation" units="J/kmol" value="-3.524E+08" />
<GibbsEnergyOfFormation name="IG Gibbs energy of formation" units="J/kmol" value="-2.95E+08" />
<AbsEntropy name="IG absolute entropy" units="J/kmol/K" value="285200" />
<HeatOfFusionAtMeltingPoint name="Heat of fusion at melting point" units="J/kmol" value="7531000" />
<MatthiasCopemanC1 name="Mathias-Copeman C1" units="_" value="0.86547" />
<HeatOfCombustion name="Standard net heat of combustion LHV" units="J/kmol" value="-8.924E+08" />
<SolidDensity name="Solid density" units="kmol/m3">
  <eqno value="2" />
  <A value="23.868" />
  <B value="-0.015242" />
  <Tmin units="K" value="69.66" />
  <Tmax units="K" value="174.15" />
  </SolidDensity>
<LiquidDensity name="Liquid density" units="kmol/m3">
  <eqno value="105" />
  <A value="1.213" />
  <B value="0.23619" />
  <C value="487.2" />
  <D value="0.24621" />
  <Tmin units="K" value="174.15" />
  <Tmax units="K" value="487.15" />
  </LiquidDensity>
<VaporPressure name="Vapour pressure" units="Pa">
  <eqno value="101" />
  <A value="70.6458" />
  <B value="-5401.751" />
  <C value="-7.334787" />
  <D value="5.934343E-06" />
  <E value="2" />
  <Tmin units="K" value="174.15" />
  <Tmax units="K" value="487.2" />
  </VaporPressure>
<HeatOfVaporization name="Heat of vaporization" units="J/kmol">
  <eqno value="106" />
  <A value="7.0578E+07" />
  <B value="3.7855" />
  <C value="-9.0874" />
  <D value="9.6043" />
  <E value="-3.7868" />
  <Tmin units="K" value="174.15" />
  <Tmax units="K" value="487.15" />
  </HeatOfVaporization>
<SolidHeatCapacityCp name="Solid heat capacity" units="J/kmol/K">
  <eqno value="1" />
  <A value="78860" />
  <Tmin units="K" value="293" />
  <Tmax units="K" value="5" />
  </SolidHeatCapacityCp>
<LiquidHeatCapacityCp name="Liquid heat capacity" units="J/kmol/K">
  <eqno value="16" />
  <A value="97064" />
  <B value="3377.4" />
  <C value="-42.373" />
  <D value="0.22648" />
  <E value="-0.00029763" />
  <Tmin units="K" value="174.15" />
  <Tmax units="K" value="304.9" />
  </LiquidHeatCapacityCp>
<IdealGasHeatCapacityCp name="Ideal gas heat capacity" units="J/kmol/K">
  <eqno value="16" />
  <A value="41319" />
  <B value="-570.15" />
  <C value="12.038" />
  <D value="-0.000034216" />
  <E value="-2.7109E-11" />
  <Tmin units="K" value="250" />
  <Tmax units="K" value="1500" />
  </IdealGasHeatCapacityCp>
<SecondVirialCoefficient name="Second virial coefficient" units="m3/kmol">
  <eqno value="104" />
  <A value="0.095846" />
  <B value="-103.82" />
  <C value="-15.924" />
  <D value="-865.24" />
  <E value="-816.67" />
  <Tmin units="K" value="243.6" />
  <Tmax units="K" value="1948.8" />
  </SecondVirialCoefficient>
<LiquidViscosity name="Liquid viscosity" units="Pa.s">
  <eqno value="101" />
  <A value="-9.949" />
  <B value="1214.4" />
  <C value="-0.53562" />
  <D value="0.000010346" />
  <E value="2" />
  <Tmin units="K" value="250" />
  <Tmax units="K" value="343" />
  </LiquidViscosity>
<VaporViscosity name="Vapour viscosity" units="Pa.s">
  <eqno value="102" />
  <A value="0.0000069776" />
  <B value="0.31537" />
  <C value="1034.6" />
  <D value="13.293" />
  <Tmin units="K" value="174.15" />
  <Tmax units="K" value="1000" />
  </VaporViscosity>
<LiquidThermalConductivity name="Liquid thermal conductivity" units="W/m/K">
  <eqno value="16" />
  <A value="0.0090363" />
  <B value="23.594" />
  <C value="-1.5627" />
  <D value="0.00089283" />
  <E value="-0.0000058101" />
  <Tmin units="K" value="146.16" />
  <Tmax units="K" value="386.16" />
  </LiquidThermalConductivity>
<VaporThermalConductivity name="Vapour thermal conductivity" units="W/m/K">
  <eqno value="102" />
  <A value="-817050" />
  <B value="-0.23016" />
  <C value="2.5314E+08" />
  <D value="-1.5205E+12" />
  <Tmin units="K" value="174.15" />
  <Tmax units="K" value="1000" />
  </VaporThermalConductivity>
<SurfaceTension name="Surface tension" units="N/m">
  <eqno value="16" />
  <A value="-0.013259" />
  <B value="47.144" />
  <C value="-3.0417" />
  <D value="0.001159" />
  <E value="-0.0000083817" />
  <Tmin units="K" value="174.15" />
  <Tmax units="K" value="470.72" />
  </SurfaceTension>
<RPPHeatCapacityCp name="Ideal gas heat capacity (RPP)" units="J/kmol/K">
  <eqno value="100" />
  <A value="18932" />
  <B value="149.77" />
  <C value="0.096448" />
  <D value="-0.00024287" />
  <E value="1.1158E-07" />
  <Tmin units="K" value="250" />
  <Tmax units="K" value="1000" />
  </RPPHeatCapacityCp>
<RelativeStaticPermittivity name="Relative static permittivity" units="_">
  <eqno value="120" />
  <A value="-7.378946" />
  <B value="-4250" />
  <C value="-25.5" />
  <Tmin units="K" value="274.15" />
  <Tmax units="K" value="444.15" />
  </RelativeStaticPermittivity>
<AntoineVaporPressure name="Antoine" units="Pa">
  <eqno value="10" />
  <A value="21.436" />
  <B value="2622.4" />
  <C value="-40.294" />
  <Tmin units="K" value="293.15" />
  <Tmax units="K" value="437.77" />
  </AntoineVaporPressure>
<LiquidViscosityRPS name="Liquid viscosity (RPS)" units="Pa.s">
  <eqno value="13" />
  <A value="1.0549" />
  <B value="-0.05168" />
  <C value="0.000071381" />
  <Tmin units="K" value="250" />
  <Tmax units="K" value="304.9" />
  </LiquidViscosityRPS>
<COSTALDVolume name="COSTLD characteristic volume (V*)" units="m3/kmol" value="0.16931" />
<DiameterLJ name="Lennard Jones diameter" units="m" value="5.348593E-10" />
<EnergyLJ name="Lennard Jones energy" units="K" value="232.362" />
<FullerVolume name="Fuller et al. diffusion volume" units="_" value="53.26" />
<MatthiasCopemanC2 name="Mathias-Copeman C2" units="_" value="-0.22908" />
<Parachor name="Parachor" units="kg0.25.m3/s0.5/kmol" value="0.0245" />
<SpecificGravity name="Specific gravity" units="_" value="0.981244" />
<Charge name="Charge" units="_" value="0" />
<CostaldAcentricFactor name="SRK acentric factor" units="_" value="0.25698" />
<WilsonVolume name="Wilson volume" units="m3/kmol" value="0.0620841" />
<UniquacR name="UNIQUAC r" units="_" value="2.1431" />
<UniquacQ name="UNIQUAC q" units="_" value="2.036" />
<MatthiasCopemanC3 name="Mathias-Copeman C3" units="_" value="0.86272" />
<ChaoSeaderAcentricFactor name="Chao-Seader acentric factor" units="_" value="0.257" />
<ChaoSeaderSolubilityParameter name="Chao-Seader solubility parameter" units="J0.5/m1.5" value="20503.4" />
<ChaoSeaderLiquidVolume name="Chao-Seader liquid volume" units="m3/kmol" value="0.0620841" />
<UnifacVLE name="UNIFAC">
  <group id="1" value="1" />
  <group id="24" value="1" />
  </UnifacVLE>
<Asog name="ASOG">
  <group id="1" value="1" />
  <group id="23" value="1" />
  </Asog>
<Umr name="UMR">
  <group id="1" value="1" />
  <group id="24" value="1" />
  </Umr>
<ModifiedUnifac name="Modified UNIFAC">
  <group id="1" value="1" />
  <group id="23" value="1" />
  </ModifiedUnifac>
<CAS name="CAS number" value="107-31-3" />
<Smiles name="SMILES" value="COC(=O)" />
</compound>

