<compound>
<LibraryIndex name="Index" value="1814" />
<CompoundID name="Name" value="methyl n-propyl sulfide" />
<StructureFormula name="Structure" value="CH3SCH2CH2CH3" />
<Family name="Family" value="42" />
<CriticalTemperature name="Critical temperature" units="K" value="552" />
<CriticalPressure name="Critical pressure" units="Pa" value="3800000" />
<CriticalVolume name="Critical volume" units="m3/kmol" value="0.322" />
<CriticalCompressibility name="Critical compressibility factor" units="_" value="0.259" />
<NormalBoilingPointTemperature name="Normal boiling point" units="K" value="368.69" />
<NormalMeltingPointTemperature name="Melting point" units="K" value="160.17" />
<TriplePointTemperature name="Triple point temperature" units="K" value="160.17" />
<TriplePointPressure name="Triple point pressure" units="Pa" value="0.00425588" />
<MolecularWeight name="Molecular weight" units="kg/kmol" value="90.18719" />
<LiquidVolumeAtNormalBoilingPoint name="Liquid molar volume at normal boiling point" units="m3/kmol" value="0.107699" />
<AcentricityFactor name="Acentric factor" units="_" value="0.356915" />
<RadiusOfGyration name="Radius of gyration" units="m" value="3.373E-10" />
<SolubilityParameter name="Solubility parameter" units="J0.5/m1.5" value="17710" />
<DipoleMoment name="Dipole moment" units="Coulomb.m" value="5.5E-30" />
<VanDerWaalsVolume name="Van der Waals volume" units="m3/kmol" value="0.0586" />
<VanDerWaalsArea name="Van der Waals area" units="m2/kmol" value="8.24E+08" />
<HeatOfFormation name="IG heat of formation" units="J/kmol" value="-8.19E+07" />
<GibbsEnergyOfFormation name="IG Gibbs energy of formation" units="J/kmol" value="1.793E+07" />
<AbsEntropy name="IG absolute entropy" units="J/kmol/K" value="371700" />
<HeatOfFusionAtMeltingPoint name="Heat of fusion at melting point" units="J/kmol" value="9912000" />
<MatthiasCopemanC1 name="Mathias-Copeman C1" units="_" value="1.01" />
<HeatOfCombustion name="Standard net heat of combustion LHV" units="J/kmol" value="-2.962E+09" />
<SolidDensity name="Solid density" units="kmol/m3">
  <eqno value="100" />
  <A value="13.682" />
  <B value="-0.010678" />
  <C value="0" />
  <D value="0" />
  <E value="0" />
  <Tmin units="K" value="64.07" />
  <Tmax units="K" value="160.17" />
  </SolidDensity>
<LiquidDensity name="Liquid density" units="kmol/m3">
  <eqno value="105" />
  <A value="1.528" />
  <B value="0.35328" />
  <C value="552" />
  <D value="0.39953" />
  <Tmin units="K" value="160.17" />
  <Tmax units="K" value="543.69" />
  </LiquidDensity>
<VaporPressure name="Vapour pressure" units="Pa">
  <eqno value="101" />
  <A value="83.78969" />
  <B value="-6786.538" />
  <C value="-9.267875" />
  <D value="6.742312E-06" />
  <E value="2" />
  <Tmin units="K" value="160.17" />
  <Tmax units="K" value="565" />
  </VaporPressure>
<HeatOfVaporization name="Heat of vaporization" units="J/kmol">
  <eqno value="106" />
  <A value="5.460643E+07" />
  <B value="0.610381" />
  <C value="0.183873" />
  <D value="-0.864255" />
  <E value="0.448129" />
  <Tmin units="K" value="160.17" />
  <Tmax units="K" value="543.69" />
  </HeatOfVaporization>
<SolidHeatCapacityCp name="Solid heat capacity" units="J/kmol/K">
  <eqno value="100" />
  <A value="-13278" />
  <B value="1215" />
  <C value="-0.30808" />
  <D value="-0.046796" />
  <E value="0.00019076" />
  <Tmin units="K" value="16.47" />
  <Tmax units="K" value="150.37" />
  </SolidHeatCapacityCp>
<LiquidHeatCapacityCp name="Liquid heat capacity" units="J/kmol/K">
  <eqno value="16" />
  <A value="140680" />
  <B value="477.81" />
  <C value="3.8109" />
  <D value="0.020949" />
  <E value="-0.000014877" />
  <Tmin units="K" value="160.17" />
  <Tmax units="K" value="368.69" />
  </LiquidHeatCapacityCp>
<IdealGasHeatCapacityCp name="Ideal gas heat capacity" units="J/kmol/K">
  <eqno value="16" />
  <A value="76201" />
  <B value="-575.5" />
  <C value="12.472" />
  <D value="0.00030373" />
  <E value="-1.0224E-07" />
  <Tmin units="K" value="273.15" />
  <Tmax units="K" value="1500" />
  </IdealGasHeatCapacityCp>
<SecondVirialCoefficient name="Second virial coefficient" units="m3/kmol">
  <eqno value="104" />
  <A value="0.08111" />
  <B value="-68.911" />
  <C value="-77.365" />
  <D value="58267" />
  <E value="-161420" />
  <Tmin units="K" value="282.5" />
  <Tmax units="K" value="1500" />
  </SecondVirialCoefficient>
<LiquidViscosity name="Liquid viscosity" units="Pa.s">
  <eqno value="101" />
  <A value="-11.683" />
  <B value="983.43" />
  <C value="0.11996" />
  <D value="-4.1262E-07" />
  <E value="2" />
  <Tmin units="K" value="160.17" />
  <Tmax units="K" value="452" />
  </LiquidViscosity>
<VaporViscosity name="Vapour viscosity" units="Pa.s">
  <eqno value="102" />
  <A value="5.4928E-08" />
  <B value="0.89154" />
  <C value="78.07" />
  <D value="-5628.6" />
  <Tmin units="K" value="160.17" />
  <Tmax units="K" value="1000" />
  </VaporViscosity>
<LiquidThermalConductivity name="Liquid thermal conductivity" units="W/m/K">
  <eqno value="16" />
  <A value="-0.062059" />
  <B value="3.0814" />
  <C value="-1.3629" />
  <D value="-0.00055214" />
  <E value="-0.0000012783" />
  <Tmin units="K" value="160.17" />
  <Tmax units="K" value="368.69" />
  </LiquidThermalConductivity>
<VaporThermalConductivity name="Vapour thermal conductivity" units="W/m/K">
  <eqno value="102" />
  <A value="0.0023304" />
  <B value="0.67586" />
  <C value="1803.3" />
  <D value="153300" />
  <Tmin units="K" value="368.69" />
  <Tmax units="K" value="1000" />
  </VaporThermalConductivity>
<SurfaceTension name="Surface tension" units="N/m">
  <eqno value="16" />
  <A value="-0.0070237" />
  <B value="92.745" />
  <C value="-3.8705" />
  <D value="0.0035687" />
  <E value="-0.000010748" />
  <Tmin units="K" value="160.17" />
  <Tmax units="K" value="543.69" />
  </SurfaceTension>
<RPPHeatCapacityCp name="Ideal gas heat capacity (RPP)" units="J/kmol/K">
  <eqno value="4" />
  <A value="16136" />
  <B value="391.22" />
  <C value="-0.18441" />
  <D value="0.000032898" />
  <Tmin units="K" value="273.15" />
  <Tmax units="K" value="1500" />
  </RPPHeatCapacityCp>
<AntoineVaporPressure name="Antoine" units="Pa">
  <eqno value="10" />
  <A value="20.984" />
  <B value="3002.5" />
  <C value="-51.221" />
  <Tmin units="K" value="331.82" />
  <Tmax units="K" value="479.77" />
  </AntoineVaporPressure>
<LiquidViscosityRPS name="Liquid viscosity (RPS)" units="Pa.s">
  <eqno value="12" />
  <A value="-2.9627" />
  <B value="-0.015623" />
  <Tmin units="K" value="160.17" />
  <Tmax units="K" value="368.69" />
  </LiquidViscosityRPS>
<COSTALDVolume name="COSTLD characteristic volume (V*)" units="m3/kmol" value="0.312895" />
<DiameterLJ name="Lennard Jones diameter" units="m" value="6.469994E-10" />
<EnergyLJ name="Lennard Jones energy" units="K" value="278.4399" />
<RacketParameter name="Rackett parameter" units="_" value="0.259" />
<FullerVolume name="Fuller et al. diffusion volume" units="_" value="101.501" />
<MatthiasCopemanC2 name="Mathias-Copeman C2" units="_" value="0" />
<Parachor name="Parachor" units="kg0.25.m3/s0.5/kmol" value="0.0423566" />
<SpecificGravity name="Specific gravity" units="_" value="0.84676" />
<Charge name="Charge" units="_" value="0" />
<CostaldAcentricFactor name="SRK acentric factor" units="_" value="0.356915" />
<WilsonVolume name="Wilson volume" units="m3/kmol" value="0.107699" />
<UniquacR name="UNIQUAC r" units="_" value="3.8629" />
<UniquacQ name="UNIQUAC q" units="_" value="3.296" />
<MatthiasCopemanC3 name="Mathias-Copeman C3" units="_" value="0" />
<ChaoSeaderAcentricFactor name="Chao-Seader acentric factor" units="_" value="0.273669" />
<ChaoSeaderSolubilityParameter name="Chao-Seader solubility parameter" units="J0.5/m1.5" value="17710" />
<ChaoSeaderLiquidVolume name="Chao-Seader liquid volume" units="m3/kmol" value="0.107699" />
<UnifacVLE name="UNIFAC">
  <group id="1" value="1" />
  <group id="2" value="2" />
  <group id="102" value="1" />
  </UnifacVLE>
<Umr name="UMR">
  <group id="1" value="1" />
  <group id="2" value="2" />
  <group id="102" value="1" />
  </Umr>
<ModifiedUnifac name="Modified UNIFAC">
  <group id="1" value="2" />
  <group id="2" value="1" />
  <group id="123" value="1" />
  </ModifiedUnifac>
<CAS name="CAS number" value="3877-15-4" />
<Smiles name="SMILES" value="CSCCC" />
</compound>

