<compound>
<LibraryIndex name="Index" value="1815" />
<CompoundID name="Name" value="methyl t-butyl sulfide" />
<StructureFormula name="Structure" value="CH3SC(CH3)3" />
<Family name="Family" value="42" />
<CriticalTemperature name="Critical temperature" units="K" value="585" />
<CriticalPressure name="Critical pressure" units="Pa" value="3400000" />
<CriticalVolume name="Critical volume" units="m3/kmol" value="0.37" />
<CriticalCompressibility name="Critical compressibility factor" units="_" value="0.269" />
<NormalBoilingPointTemperature name="Normal boiling point" units="K" value="372.048" />
<NormalMeltingPointTemperature name="Melting point" units="K" value="190.84" />
<TriplePointTemperature name="Triple point temperature" units="K" value="190.84" />
<TriplePointPressure name="Triple point pressure" units="Pa" value="0.818336" />
<MolecularWeight name="Molecular weight" units="kg/kmol" value="104.2138" />
<LiquidVolumeAtNormalBoilingPoint name="Liquid molar volume at normal boiling point" units="m3/kmol" value="0.12697" />
<AcentricityFactor name="Acentric factor" units="_" value="0.107514" />
<RadiusOfGyration name="Radius of gyration" units="m" value="3.509E-10" />
<SolubilityParameter name="Solubility parameter" units="J0.5/m1.5" value="16230" />
<DipoleMoment name="Dipole moment" units="Coulomb.m" value="5.2E-30" />
<VanDerWaalsVolume name="Van der Waals volume" units="m3/kmol" value="0.06881" />
<VanDerWaalsArea name="Van der Waals area" units="m2/kmol" value="9.78E+08" />
<HeatOfFormation name="IG heat of formation" units="J/kmol" value="-1.209E+08" />
<GibbsEnergyOfFormation name="IG Gibbs energy of formation" units="J/kmol" value="7400000" />
<AbsEntropy name="IG absolute entropy" units="J/kmol/K" value="414300" />
<HeatOfFusionAtMeltingPoint name="Heat of fusion at melting point" units="J/kmol" value="8414000" />
<MatthiasCopemanC1 name="Mathias-Copeman C1" units="_" value="0.67" />
<HeatOfCombustion name="Standard net heat of combustion LHV" units="J/kmol" value="-3.558E+09" />
<SolidDensity name="Solid density" units="kmol/m3">
  <eqno value="100" />
  <A value="11.206" />
  <B value="-0.0073401" />
  <C value="0" />
  <D value="0" />
  <E value="0" />
  <Tmin units="K" value="76.34" />
  <Tmax units="K" value="190.84" />
  </SolidDensity>
<LiquidDensity name="Liquid density" units="kmol/m3">
  <eqno value="105" />
  <A value="0.0025324" />
  <B value="0.015967" />
  <C value="585" />
  <D value="0.080614" />
  <Tmin units="K" value="190.84" />
  <Tmax units="K" value="570" />
  </LiquidDensity>
<VaporPressure name="Vapour pressure" units="Pa">
  <eqno value="101" />
  <A value="84.46516" />
  <B value="-6786.586" />
  <C value="-9.396892" />
  <D value="6.668285E-06" />
  <E value="2" />
  <Tmin units="K" value="190.84" />
  <Tmax units="K" value="570" />
  </VaporPressure>
<HeatOfVaporization name="Heat of vaporization" units="J/kmol">
  <eqno value="106" />
  <A value="6.776086E+07" />
  <B value="2.156989" />
  <C value="-4.009149" />
  <D value="3.630339" />
  <E value="-1.236406" />
  <Tmin units="K" value="190.84" />
  <Tmax units="K" value="570" />
  </HeatOfVaporization>
<SolidHeatCapacityCp name="Solid heat capacity" units="J/kmol/K">
  <eqno value="100" />
  <A value="-8544.9" />
  <B value="1449.1" />
  <C value="-8.766" />
  <D value="0.039746" />
  <E value="-0.000061947" />
  <Tmin units="K" value="20.74" />
  <Tmax units="K" value="180.54" />
  </SolidHeatCapacityCp>
<LiquidHeatCapacityCp name="Liquid heat capacity" units="J/kmol/K">
  <eqno value="16" />
  <A value="141210" />
  <B value="178.65" />
  <C value="7.6994" />
  <D value="0.011393" />
  <E value="-0.0000080501" />
  <Tmin units="K" value="189.96" />
  <Tmax units="K" value="372.05" />
  </LiquidHeatCapacityCp>
<IdealGasHeatCapacityCp name="Ideal gas heat capacity" units="J/kmol/K">
  <eqno value="16" />
  <A value="87862" />
  <B value="-573.15" />
  <C value="12.832" />
  <D value="0.000097962" />
  <E value="-4.8038E-08" />
  <Tmin units="K" value="273.15" />
  <Tmax units="K" value="1500" />
  </IdealGasHeatCapacityCp>
<SecondVirialCoefficient name="Second virial coefficient" units="m3/kmol">
  <eqno value="104" />
  <A value="0.2108" />
  <B value="-261.12" />
  <C value="-41.45" />
  <D value="-6872.1" />
  <E value="24062" />
  <Tmin units="K" value="330.2" />
  <Tmax units="K" value="1500" />
  </SecondVirialCoefficient>
<LiquidViscosity name="Liquid viscosity" units="Pa.s">
  <eqno value="101" />
  <A value="-10.768" />
  <B value="996.37" />
  <C value="0.0046964" />
  <D value="-1.0865E-08" />
  <E value="2" />
  <Tmin units="K" value="190.84" />
  <Tmax units="K" value="452" />
  </LiquidViscosity>
<VaporViscosity name="Vapour viscosity" units="Pa.s">
  <eqno value="102" />
  <A value="1.4934E-07" />
  <B value="0.74231" />
  <C value="170.99" />
  <D value="-8263.5" />
  <Tmin units="K" value="190.84" />
  <Tmax units="K" value="1000" />
  </VaporViscosity>
<LiquidThermalConductivity name="Liquid thermal conductivity" units="W/m/K">
  <eqno value="16" />
  <A value="-0.049324" />
  <B value="-5.479" />
  <C value="-1.3559" />
  <D value="-0.00091706" />
  <E value="-9.5073E-07" />
  <Tmin units="K" value="190.84" />
  <Tmax units="K" value="372.05" />
  </LiquidThermalConductivity>
<VaporThermalConductivity name="Vapour thermal conductivity" units="W/m/K">
  <eqno value="102" />
  <A value="0.00016838" />
  <B value="0.95767" />
  <C value="599.31" />
  <D value="12993" />
  <Tmin units="K" value="190.84" />
  <Tmax units="K" value="1000" />
  </VaporThermalConductivity>
<SurfaceTension name="Surface tension" units="N/m">
  <eqno value="16" />
  <A value="-0.025531" />
  <B value="-17.805" />
  <C value="-2.276" />
  <D value="-0.0022145" />
  <E value="-2.4544E-07" />
  <Tmin units="K" value="190.84" />
  <Tmax units="K" value="570" />
  </SurfaceTension>
<RPPHeatCapacityCp name="Ideal gas heat capacity (RPP)" units="J/kmol/K">
  <eqno value="4" />
  <A value="7260" />
  <B value="545.25" />
  <C value="-0.30907" />
  <D value="0.000066341" />
  <Tmin units="K" value="273.15" />
  <Tmax units="K" value="1500" />
  </RPPHeatCapacityCp>
<AntoineVaporPressure name="Antoine" units="Pa">
  <eqno value="10" />
  <A value="20.736" />
  <B value="2954" />
  <C value="-51.303" />
  <Tmin units="K" value="351.19" />
  <Tmax units="K" value="510.13" />
  </AntoineVaporPressure>
<LiquidViscosityRPS name="Liquid viscosity (RPS)" units="Pa.s">
  <eqno value="12" />
  <A value="-3.2409" />
  <B value="-0.01354" />
  <Tmin units="K" value="190.84" />
  <Tmax units="K" value="372.05" />
  </LiquidViscosityRPS>
<COSTALDVolume name="COSTLD characteristic volume (V*)" units="m3/kmol" value="0.3701" />
<DiameterLJ name="Lennard Jones diameter" units="m" value="6.475542E-10" />
<EnergyLJ name="Lennard Jones energy" units="K" value="338.2028" />
<RacketParameter name="Rackett parameter" units="_" value="0.269" />
<FullerVolume name="Fuller et al. diffusion volume" units="_" value="118.727" />
<MatthiasCopemanC2 name="Mathias-Copeman C2" units="_" value="0" />
<Parachor name="Parachor" units="kg0.25.m3/s0.5/kmol" value="0.0497028" />
<SpecificGravity name="Specific gravity" units="_" value="0.82938" />
<Charge name="Charge" units="_" value="0" />
<CostaldAcentricFactor name="SRK acentric factor" units="_" value="0.107514" />
<WilsonVolume name="Wilson volume" units="m3/kmol" value="0.12697" />
<UniquacR name="UNIQUAC r" units="_" value="4.5358" />
<UniquacQ name="UNIQUAC q" units="_" value="3.912" />
<MatthiasCopemanC3 name="Mathias-Copeman C3" units="_" value="0" />
<ChaoSeaderAcentricFactor name="Chao-Seader acentric factor" units="_" value="0.233365" />
<ChaoSeaderSolubilityParameter name="Chao-Seader solubility parameter" units="J0.5/m1.5" value="16230" />
<ChaoSeaderLiquidVolume name="Chao-Seader liquid volume" units="m3/kmol" value="0.12697" />
<UnifacVLE name="UNIFAC">
  <group id="1" value="3" />
  <group id="4" value="1" />
  <group id="102" value="1" />
  </UnifacVLE>
<Umr name="UMR">
  <group id="1" value="3" />
  <group id="4" value="1" />
  <group id="102" value="1" />
  </Umr>
<ModifiedUnifac name="Modified UNIFAC">
  <group id="1" value="3" />
  <group id="4" value="1" />
  <group id="122" value="1" />
  </ModifiedUnifac>
<CAS name="CAS number" value="6163-64-0" />
<Smiles name="SMILES" value="CSC(C)(C)C" />
</compound>

