<compound>
<LibraryIndex name="Index" value="1407" />
<CompoundID name="Name" value="methyl ethyl ether" />
<StructureFormula name="Structure" value="CH3CH2OCH3" />
<Family name="Family" value="61" />
<CriticalTemperature name="Critical temperature" units="K" value="437.8" />
<CriticalPressure name="Critical pressure" units="Pa" value="4400000" />
<CriticalVolume name="Critical volume" units="m3/kmol" value="0.221" />
<CriticalCompressibility name="Critical compressibility factor" units="_" value="0.267" />
<NormalBoilingPointTemperature name="Normal boiling point" units="K" value="280.5" />
<NormalMeltingPointTemperature name="Melting point" units="K" value="160" />
<TriplePointTemperature name="Triple point temperature" units="K" value="160" />
<TriplePointPressure name="Triple point pressure" units="Pa" value="7.85121" />
<MolecularWeight name="Molecular weight" units="kg/kmol" value="60.09502" />
<LiquidVolumeAtNormalBoilingPoint name="Liquid molar volume at normal boiling point" units="m3/kmol" value="0.08585" />
<AcentricityFactor name="Acentric factor" units="_" value="0.236" />
<RadiusOfGyration name="Radius of gyration" units="m" value="2.594E-10" />
<SolubilityParameter name="Solubility parameter" units="J0.5/m1.5" value="15370" />
<DipoleMoment name="Dipole moment" units="Coulomb.m" value="4.1E-30" />
<VanDerWaalsVolume name="Van der Waals volume" units="m3/kmol" value="0.04127" />
<VanDerWaalsArea name="Van der Waals area" units="m2/kmol" value="6.19E+08" />
<HeatOfFormation name="IG heat of formation" units="J/kmol" value="-2.164E+08" />
<GibbsEnergyOfFormation name="IG Gibbs energy of formation" units="J/kmol" value="-1.177E+08" />
<AbsEntropy name="IG absolute entropy" units="J/kmol/K" value="308810" />
<HeatOfFusionAtMeltingPoint name="Heat of fusion at melting point" units="J/kmol" value="7980000" />
<MatthiasCopemanC1 name="Mathias-Copeman C1" units="_" value="0.81612" />
<HeatOfCombustion name="Standard net heat of combustion LHV" units="J/kmol" value="-1.9314E+09" />
<SolidDensity name="Solid density" units="kmol/m3">
  <eqno value="2" />
  <A value="16.4" />
  <B value="-5.0307E-16" />
  <C value="0" />
  <D value="0" />
  <E value="0" />
  <Tmin units="K" value="0" />
  <Tmax units="K" value="9.5" />
  </SolidDensity>
<LiquidDensity name="Liquid density" units="kmol/m3">
  <eqno value="105" />
  <A value="1.1195" />
  <B value="0.26367" />
  <C value="437.86" />
  <D value="0.25231" />
  <Tmin units="K" value="160" />
  <Tmax units="K" value="437.85" />
  </LiquidDensity>
<VaporPressure name="Vapour pressure" units="Pa">
  <eqno value="101" />
  <A value="63.84" />
  <B value="-4659.2" />
  <C value="-6.4137" />
  <D value="0.0000057727" />
  <E value="2" />
  <Tmin units="K" value="160" />
  <Tmax units="K" value="437.85" />
  </VaporPressure>
<HeatOfVaporization name="Heat of vaporization" units="J/kmol">
  <eqno value="106" />
  <A value="1.3679E+08" />
  <B value="9.4948" />
  <C value="-25.655" />
  <D value="28.424" />
  <E value="-11.603" />
  <Tmin units="K" value="160" />
  <Tmax units="K" value="423.18" />
  </HeatOfVaporization>
<SolidHeatCapacityCp name="Solid heat capacity" units="J/kmol/K">
  <eqno value="1" />
  <A value="106570" />
  <Tmin units="K" value="0" />
  <Tmax units="K" value="437.8" />
  </SolidHeatCapacityCp>
<LiquidHeatCapacityCp name="Liquid heat capacity" units="J/kmol/K">
  <eqno value="16" />
  <A value="109050" />
  <B value="-31.645" />
  <C value="7.7783" />
  <D value="0.0084684" />
  <E value="0.0000041202" />
  <Tmin units="K" value="160" />
  <Tmax units="K" value="291.87" />
  </LiquidHeatCapacityCp>
<IdealGasHeatCapacityCp name="Ideal gas heat capacity" units="J/kmol/K">
  <eqno value="16" />
  <A value="60571" />
  <B value="-557.18" />
  <C value="12.079" />
  <D value="0.00048084" />
  <E value="-1.7581E-07" />
  <Tmin units="K" value="150" />
  <Tmax units="K" value="1500" />
  </IdealGasHeatCapacityCp>
<SecondVirialCoefficient name="Second virial coefficient" units="m3/kmol">
  <eqno value="104" />
  <A value="0.11781" />
  <B value="-82.964" />
  <C value="-11.583" />
  <D value="116.91" />
  <E value="-410.44" />
  <Tmin units="K" value="218.9" />
  <Tmax units="K" value="1751.2" />
  </SecondVirialCoefficient>
<LiquidViscosity name="Liquid viscosity" units="Pa.s">
  <eqno value="101" />
  <A value="-11.138" />
  <B value="628.05" />
  <C value="0.042345" />
  <D value="-2.0281E-08" />
  <E value="2" />
  <Tmin units="K" value="160" />
  <Tmax units="K" value="373.15" />
  </LiquidViscosity>
<VaporViscosity name="Vapour viscosity" units="Pa.s">
  <eqno value="102" />
  <A value="2.9661E-07" />
  <B value="0.6716" />
  <C value="174.02" />
  <D value="-2778.1" />
  <Tmin units="K" value="160" />
  <Tmax units="K" value="1000" />
  </VaporViscosity>
<LiquidThermalConductivity name="Liquid thermal conductivity" units="W/m/K">
  <eqno value="16" />
  <A value="0.029003" />
  <B value="34.124" />
  <C value="-1.9356" />
  <D value="0.0010295" />
  <E value="-0.0000079939" />
  <Tmin units="K" value="123.15" />
  <Tmax units="K" value="393.15" />
  </LiquidThermalConductivity>
<VaporThermalConductivity name="Vapour thermal conductivity" units="W/m/K">
  <eqno value="102" />
  <A value="0.00021058" />
  <B value="0.94472" />
  <C value="515.36" />
  <D value="8108.3" />
  <Tmin units="K" value="160" />
  <Tmax units="K" value="1000" />
  </VaporThermalConductivity>
<SurfaceTension name="Surface tension" units="N/m">
  <eqno value="16" />
  <A value="-0.010165" />
  <B value="66.837" />
  <C value="-3.7084" />
  <D value="0.0031429" />
  <E value="-0.000012741" />
  <Tmin units="K" value="160" />
  <Tmax units="K" value="423.18" />
  </SurfaceTension>
<RPPHeatCapacityCp name="Ideal gas heat capacity (RPP)" units="J/kmol/K">
  <eqno value="100" />
  <A value="33324" />
  <B value="178.7" />
  <C value="0.14991" />
  <D value="-0.00027712" />
  <E value="1.1067E-07" />
  <Tmin units="K" value="100" />
  <Tmax units="K" value="1000" />
  </RPPHeatCapacityCp>
<AntoineVaporPressure name="Antoine" units="Pa">
  <eqno value="10" />
  <A value="20.812" />
  <B value="2153.4" />
  <C value="-48.579" />
  <Tmin units="K" value="265.35" />
  <Tmax units="K" value="393.94" />
  </AntoineVaporPressure>
<LiquidViscosityRPS name="Liquid viscosity (RPS)" units="Pa.s">
  <eqno value="12" />
  <A value="-5.3262" />
  <B value="-0.012074" />
  <Tmin units="K" value="160" />
  <Tmax units="K" value="300" />
  </LiquidViscosityRPS>
<COSTALDVolume name="COSTLD characteristic volume (V*)" units="m3/kmol" value="0.218857" />
<DiameterLJ name="Lennard Jones diameter" units="m" value="5.502528E-10" />
<EnergyLJ name="Lennard Jones energy" units="K" value="246.3936" />
<RacketParameter name="Rackett parameter" units="_" value="0.267" />
<FullerVolume name="Fuller et al. diffusion volume" units="_" value="72.28999" />
<MatthiasCopemanC2 name="Mathias-Copeman C2" units="_" value="-0.44235" />
<Parachor name="Parachor" units="kg0.25.m3/s0.5/kmol" value="0.0306623" />
<SpecificGravity name="Specific gravity" units="_" value="0.705396" />
<Charge name="Charge" units="_" value="0" />
<CostaldAcentricFactor name="SRK acentric factor" units="_" value="0.236" />
<WilsonVolume name="Wilson volume" units="m3/kmol" value="0.08585" />
<UniquacR name="UNIQUAC r" units="_" value="2.7205" />
<UniquacQ name="UNIQUAC q" units="_" value="2.476" />
<MatthiasCopemanC3 name="Mathias-Copeman C3" units="_" value="3.534" />
<ChaoSeaderAcentricFactor name="Chao-Seader acentric factor" units="_" value="0.236" />
<ChaoSeaderSolubilityParameter name="Chao-Seader solubility parameter" units="J0.5/m1.5" value="15370" />
<ChaoSeaderLiquidVolume name="Chao-Seader liquid volume" units="m3/kmol" value="0.08585" />
<UnifacVLE name="UNIFAC">
  <group id="1" value="1" />
  <group id="2" value="1" />
  <group id="25" value="1" />
  </UnifacVLE>
<UnifacLLE name="UNIFAC-LLE">
  <group id="1" value="1" />
  <group id="2" value="1" />
  <group id="27" value="1" />
  </UnifacLLE>
<Asog name="ASOG">
  <group id="1" value="2" />
  <group id="2" value="1" />
  <group id="19" value="1" />
  </Asog>
<Umr name="UMR">
  <group id="1" value="1" />
  <group id="2" value="1" />
  <group id="25" value="1" />
  </Umr>
<ModifiedUnifac name="Modified UNIFAC">
  <group id="1" value="1" />
  <group id="2" value="1" />
  <group id="24" value="1" />
  </ModifiedUnifac>
<CAS name="CAS number" value="540-67-0" />
<Smiles name="SMILES" value="COCC" />
</compound>

