<compound>
<LibraryIndex name="Index" value="105" />
<CompoundID name="Name" value="methylcyclopentane" />
<StructureFormula name="Structure" value="(C5H9)CH3" />
<Family name="Family" value="6" />
<CriticalTemperature name="Critical temperature" units="K" value="532.79" />
<CriticalPressure name="Critical pressure" units="Pa" value="3784000" />
<CriticalVolume name="Critical volume" units="m3/kmol" value="0.319" />
<CriticalCompressibility name="Critical compressibility factor" units="_" value="0.272" />
<NormalBoilingPointTemperature name="Normal boiling point" units="K" value="344.98" />
<NormalMeltingPointTemperature name="Melting point" units="K" value="130.73" />
<TriplePointTemperature name="Triple point temperature" units="K" value="130.73" />
<TriplePointPressure name="Triple point pressure" units="Pa" value="0.000224525" />
<MolecularWeight name="Molecular weight" units="kg/kmol" value="84.15948" />
<LiquidVolumeAtNormalBoilingPoint name="Liquid molar volume at normal boiling point" units="m3/kmol" value="0.11313" />
<AcentricityFactor name="Acentric factor" units="_" value="0.227" />
<RadiusOfGyration name="Radius of gyration" units="m" value="3.299E-10" />
<SolubilityParameter name="Solubility parameter" units="J0.5/m1.5" value="16100" />
<DipoleMoment name="Dipole moment" units="Coulomb.m" value="0" />
<VanDerWaalsVolume name="Van der Waals volume" units="m3/kmol" value="0.06017" />
<VanDerWaalsArea name="Van der Waals area" units="m2/kmol" value="7.52E+08" />
<HeatOfFormation name="IG heat of formation" units="J/kmol" value="-1.062E+08" />
<GibbsEnergyOfFormation name="IG Gibbs energy of formation" units="J/kmol" value="3.63E+07" />
<AbsEntropy name="IG absolute entropy" units="J/kmol/K" value="339900" />
<HeatOfFusionAtMeltingPoint name="Heat of fusion at melting point" units="J/kmol" value="6929000" />
<MatthiasCopemanC1 name="Mathias-Copeman C1" units="_" value="0.89391" />
<HeatOfCombustion name="Standard net heat of combustion LHV" units="J/kmol" value="-3.6741E+09" />
<SolidDensity name="Solid density" units="kmol/m3">
  <eqno value="2" />
  <A value="13.305" />
  <B value="-0.011236" />
  <Tmin units="K" value="52.29" />
  <Tmax units="K" value="130.73" />
  </SolidDensity>
<LiquidDensity name="Liquid density" units="kmol/m3">
  <eqno value="105" />
  <A value="0.63455" />
  <B value="0.23477" />
  <C value="532.79" />
  <D value="0.24394" />
  <Tmin units="K" value="130.73" />
  <Tmax units="K" value="532.7" />
  </LiquidDensity>
<VaporPressure name="Vapour pressure" units="Pa">
  <eqno value="101" />
  <A value="63.18203" />
  <B value="-5470.368" />
  <C value="-6.215132" />
  <D value="4.384737E-06" />
  <E value="2" />
  <Tmin units="K" value="130.73" />
  <Tmax units="K" value="532.7" />
  </VaporPressure>
<HeatOfVaporization name="Heat of vaporization" units="J/kmol">
  <eqno value="106" />
  <A value="4.986429E+07" />
  <B value="0.75425" />
  <C value="-0.186227" />
  <D value="-0.50621" />
  <E value="0.35999" />
  <Tmin units="K" value="130.72" />
  <Tmax units="K" value="532.7" />
  </HeatOfVaporization>
<SolidHeatCapacityCp name="Solid heat capacity" units="J/kmol/K">
  <eqno value="100" />
  <A value="-21181" />
  <B value="1799.3" />
  <C value="-12.463" />
  <D value="0.018536" />
  <E value="0.00015326" />
  <Tmin units="K" value="20.92" />
  <Tmax units="K" value="130.72" />
  </SolidHeatCapacityCp>
<LiquidHeatCapacityCp name="Liquid heat capacity" units="J/kmol/K">
  <eqno value="16" />
  <A value="102830" />
  <B value="317.53" />
  <C value="4.999" />
  <D value="0.022368" />
  <E value="-0.000020298" />
  <Tmin units="K" value="126.58" />
  <Tmax units="K" value="366.48" />
  </LiquidHeatCapacityCp>
<IdealGasHeatCapacityCp name="Ideal gas heat capacity" units="J/kmol/K">
  <eqno value="16" />
  <A value="55624" />
  <B value="-676.34" />
  <C value="13.207" />
  <D value="-0.0001363" />
  <E value="2.6321E-08" />
  <Tmin units="K" value="200" />
  <Tmax units="K" value="1500" />
  </IdealGasHeatCapacityCp>
<SecondVirialCoefficient name="Second virial coefficient" units="m3/kmol">
  <eqno value="104" />
  <A value="0.12419" />
  <B value="-105.76" />
  <C value="-38.365" />
  <D value="4383.1" />
  <E value="-10749" />
  <Tmin units="K" value="250.72" />
  <Tmax units="K" value="1500" />
  </SecondVirialCoefficient>
<LiquidViscosity name="Liquid viscosity" units="Pa.s">
  <eqno value="101" />
  <A value="-9.2288" />
  <B value="846.65" />
  <C value="-0.18612" />
  <D value="-0.0000022383" />
  <E value="2" />
  <Tmin units="K" value="248.15" />
  <Tmax units="K" value="426.232" />
  </LiquidViscosity>
<VaporViscosity name="Vapour viscosity" units="Pa.s">
  <eqno value="102" />
  <A value="0.0000009078" />
  <B value="0.495" />
  <C value="355.78" />
  <D value="10.622" />
  <Tmin units="K" value="130.73" />
  <Tmax units="K" value="1000" />
  </VaporViscosity>
<LiquidThermalConductivity name="Liquid thermal conductivity" units="W/m/K">
  <eqno value="16" />
  <A value="-0.040815" />
  <B value="4.4808" />
  <C value="-1.5434" />
  <D value="-0.00050494" />
  <E value="-0.0000017671" />
  <Tmin units="K" value="130.73" />
  <Tmax units="K" value="344.95" />
  </LiquidThermalConductivity>
<VaporThermalConductivity name="Vapour thermal conductivity" units="W/m/K">
  <eqno value="102" />
  <A value="0.0076653" />
  <B value="0.48521" />
  <C value="479.72" />
  <D value="658190" />
  <Tmin units="K" value="130.73" />
  <Tmax units="K" value="1000" />
  </VaporThermalConductivity>
<SurfaceTension name="Surface tension" units="N/m">
  <eqno value="16" />
  <A value="-0.0093168" />
  <B value="26.403" />
  <C value="-3.0884" />
  <D value="0.00036246" />
  <E value="-0.0000065372" />
  <Tmin units="K" value="130.73" />
  <Tmax units="K" value="532.7" />
  </SurfaceTension>
<RPPHeatCapacityCp name="Ideal gas heat capacity (RPP)" units="J/kmol/K">
  <eqno value="100" />
  <A value="44724" />
  <B value="-68.661" />
  <C value="1.4378" />
  <D value="-0.0017998" />
  <E value="6.8702E-07" />
  <Tmin units="K" value="50" />
  <Tmax units="K" value="1000" />
  </RPPHeatCapacityCp>
<AntoineVaporPressure name="Antoine" units="Pa">
  <eqno value="10" />
  <A value="20.957" />
  <B value="2887.5" />
  <C value="-38.834" />
  <Tmin units="K" value="319.7" />
  <Tmax units="K" value="477.59" />
  </AntoineVaporPressure>
<LiquidViscosityRPS name="Liquid viscosity (RPS)" units="Pa.s">
  <eqno value="13" />
  <A value="-1.3777" />
  <B value="-0.03038" />
  <C value="0.00003135" />
  <Tmin units="K" value="248.15" />
  <Tmax units="K" value="353.15" />
  </LiquidViscosityRPS>
<COSTALDVolume name="COSTLD characteristic volume (V*)" units="m3/kmol" value="0.31812" />
<DiameterLJ name="Lennard Jones diameter" units="m" value="6.081712E-10" />
<EnergyLJ name="Lennard Jones energy" units="K" value="320.5659" />
<FullerVolume name="Fuller et al. diffusion volume" units="_" value="123.12" />
<MatthiasCopemanC2 name="Mathias-Copeman C2" units="_" value="-0.53959" />
<Parachor name="Parachor" units="kg0.25.m3/s0.5/kmol" value="0.0432" />
<SpecificGravity name="Specific gravity" units="_" value="0.752065" />
<Charge name="Charge" units="_" value="0" />
<CostaldAcentricFactor name="SRK acentric factor" units="_" value="0.23217" />
<WilsonVolume name="Wilson volume" units="m3/kmol" value="0.113042" />
<UniquacR name="UNIQUAC r" units="_" value="3.97" />
<UniquacQ name="UNIQUAC q" units="_" value="3.01" />
<ApiSrkS2 name="API-SRK s2" units="_" value="-0.001461" />
<MatthiasCopemanC3 name="Mathias-Copeman C3" units="_" value="1.1464" />
<ChaoSeaderAcentricFactor name="Chao-Seader acentric factor" units="_" value="0.2346" />
<ChaoSeaderSolubilityParameter name="Chao-Seader solubility parameter" units="J0.5/m1.5" value="16057.17" />
<ChaoSeaderLiquidVolume name="Chao-Seader liquid volume" units="m3/kmol" value="0.1131" />
<UnifacVLE name="UNIFAC">
  <group id="1" value="1" />
  <group id="2" value="4" />
  <group id="3" value="1" />
  </UnifacVLE>
<UnifacLLE name="UNIFAC-LLE">
  <group id="1" value="1" />
  <group id="2" value="4" />
  <group id="3" value="1" />
  </UnifacLLE>
<Asog name="ASOG">
  <group id="1" value="1" />
  <group id="2" value="4" />
  <group id="3" value="1" />
  </Asog>
<GCmethod name="PPR78">
  <group id="1" value="1" />
  <group id="2" value="4" />
  <group id="3" value="1" />
  </GCmethod>
<Umr name="UMR">
  <group id="1" value="1" />
  <group id="2" value="4" />
  <group id="3" value="1" />
  </Umr>
<ModifiedUnifac name="Modified UNIFAC">
  <group id="1" value="1" />
  <group id="78" value="4" />
  <group id="79" value="1" />
  </ModifiedUnifac>
<CAS name="CAS number" value="96-37-7" />
<Smiles name="SMILES" value="C1(C)CCCC1" />
</compound>

