<compound>
<LibraryIndex name="Index" value="27991" />
<CompoundID name="Name" value="methyl phenyl carbonate" />
<StructureFormula name="Structure" value="CH3(OCOO)C6H5" />
<Family name="Family" value="45" />
<CriticalTemperature name="Critical temperature" units="K" value="704.8714" />
<CriticalPressure name="Critical pressure" units="Pa" value="3441135" />
<CriticalVolume name="Critical volume" units="m3/kmol" value="0.42129" />
<CriticalCompressibility name="Critical compressibility factor" units="_" value="0.244961" />
<NormalBoilingPointTemperature name="Normal boiling point" units="K" value="491.76" />
<MolecularWeight name="Molecular weight" units="kg/kmol" value="152.1473" />
<LiquidVolumeAtNormalBoilingPoint name="Liquid molar volume at normal boiling point" units="m3/kmol" value="0.1385" />
<AcentricityFactor name="Acentric factor" units="_" value="0.472398" />
<SolubilityParameter name="Solubility parameter" units="J0.5/m1.5" value="19646.23" />
<VanDerWaalsVolume name="Van der Waals volume" units="m3/kmol" value="0.0834775" />
<VanDerWaalsArea name="Van der Waals area" units="m2/kmol" value="1.0895E+09" />
<HeatOfFormation name="IG heat of formation" units="J/kmol" value="-4.4828E+08" />
<GibbsEnergyOfFormation name="IG Gibbs energy of formation" units="J/kmol" value="-3.1153E+08" />
<AbsEntropy name="IG absolute entropy" units="J/kmol/K" value="514291.9" />
<HeatOfCombustion name="Standard net heat of combustion LHV" units="J/kmol" value="-3.82904E+09" />
<VaporPressure name="Vapour pressure" units="Pa">
  <eqno value="10" />
  <A value="23.07041" />
  <B value="5677.005" />
  <C value="0" />
  <Tmin units="K" value="273" />
  <Tmax units="K" value="704.871" />
  </VaporPressure>
<HeatOfVaporization name="Heat of vaporization" units="J/kmol">
  <eqno value="106" />
  <A value="7.238285E+07" />
  <B value="0.38" />
  <C value="0" />
  <D value="0" />
  <E value="0" />
  <Tmin units="K" value="344.232" />
  <Tmax units="K" value="704.871" />
  </HeatOfVaporization>
<SolidHeatCapacityCp name="Solid heat capacity" units="J/kmol/K">
  <eqno value="1" />
  <A value="187860" />
  <Tmin units="K" value="0" />
  <Tmax units="K" value="643.91" />
  </SolidHeatCapacityCp>
<IdealGasHeatCapacityCp name="Ideal gas heat capacity" units="J/kmol/K">
  <eqno value="16" />
  <A value="71099.59" />
  <B value="-500" />
  <C value="13.00991" />
  <D value="0" />
  <E value="0" />
  <Tmin units="K" value="255" />
  <Tmax units="K" value="1500" />
  </IdealGasHeatCapacityCp>
<VaporViscosity name="Vapour viscosity" units="Pa.s">
  <eqno value="2" />
  <A value="-3.1139E-07" />
  <B value="1.4221E-08" />
  <Tmin units="K" value="403.23" />
  <Tmax units="K" value="1000" />
  </VaporViscosity>
<SurfaceTension name="Surface tension" units="N/m">
  <eqno value="116" />
  <A value="0" />
  <B value="0" />
  <C value="0" />
  <D value="0.0275543" />
  <E value="0.0275543" />
  <Tmin units="K" value="273" />
  <Tmax units="K" value="704.8714" />
  </SurfaceTension>
<RPPHeatCapacityCp name="Ideal gas heat capacity (RPP)" units="J/kmol/K">
  <eqno value="4" />
  <A value="-33746" />
  <B value="553.66" />
  <C value="-0.32246" />
  <D value="0.00007832" />
  <Tmin units="K" value="193.17" />
  <Tmax units="K" value="1500" />
  </RPPHeatCapacityCp>
<AntoineVaporPressure name="Antoine" units="Pa">
  <eqno value="10" />
  <A value="20.9825" />
  <B value="3769.291" />
  <C value="-93.16374" />
  <Tmin units="K" value="393.408" />
  <Tmax units="K" value="704.871" />
  </AntoineVaporPressure>
<COSTALDVolume name="COSTLD characteristic volume (V*)" units="m3/kmol" value="0.455428" />
<DiameterLJ name="Lennard Jones diameter" units="m" value="6.988531E-10" />
<EnergyLJ name="Lennard Jones energy" units="K" value="257.1649" />
<RacketParameter name="Rackett parameter" units="_" value="0.244961" />
<FullerVolume name="Fuller et al. diffusion volume" units="_" value="145.71" />
<Parachor name="Parachor" units="kg0.25.m3/s0.5/kmol" value="0.05534" />
<SpecificGravity name="Specific gravity" units="_" value="1.14" />
<Charge name="Charge" units="_" value="0" />
<CostaldAcentricFactor name="SRK acentric factor" units="_" value="0.41299" />
<WilsonVolume name="Wilson volume" units="m3/kmol" value="0.1385" />
<UniquacR name="UNIQUAC r" units="_" value="5.5028" />
<UniquacQ name="UNIQUAC q" units="_" value="4.358" />
<ChaoSeaderAcentricFactor name="Chao-Seader acentric factor" units="_" value="0.41299" />
<ChaoSeaderLiquidVolume name="Chao-Seader liquid volume" units="m3/kmol" value="0.1385" />
<UnifacVLE name="UNIFAC">
  <group id="1" value="1" />
  <group id="10" value="5" />
  <group id="11" value="1" />
  <group id="120" value="1" />
  </UnifacVLE>
<Asog name="ASOG">
  <group id="1" value="1" />
  <group id="10" value="5" />
  <group id="11" value="1" />
  <group id="19" value="1" />
  <group id="22" value="1" />
  </Asog>
<Umr name="UMR">
  <group id="1" value="1" />
  <group id="10" value="5" />
  <group id="11" value="1" />
  <group id="120" value="1" />
  </Umr>
<CAS name="CAS number" value="13509-27-8" />
<Smiles name="SMILES" value="COC(=O)OC1=CC=CC=C1" />
</compound>

