<compound>
  <LibraryIndex name="Index" value="1500" />
  <CompoundID name="Name" value="milk_solids" />
  <StructureFormula name="Structure" value="not for use" />
  <Family name="Family" value="not for use" />
  <CriticalTemperature name="Critical temperature" units="K" value="not for use" />
  <CriticalPressure name="Critical pressure" units="Pa" value="not for use" />
  <CriticalVolume name="Critical volume" units="m3/kmol" value="not for use" />
  <CriticalCompressibility name="Critical compressibility factor" units="_" value="not for use" />
  <NormalBoilingPointTemperature name="Normal boiling point" units="K" value="not for use" />
  <NormalMeltingPointTemperature name="Melting point" units="K" value="not for use" />
  <TriplePointTemperature name="Triple point temperature" units="K" value="not for use" />
  <TriplePointPressure name="Triple point pressure" units="Pa" value="not for use" />
  <MolecularWeight name="Molecular weight" units="kg/kmol" value="not for use" />
  <LiquidVolumeAtNormalBoilingPoint name="Liquid molar volume at normal boiling point" units="m3/kmol" value="not for use" />
  <AcentricityFactor name="Acentric factor" units="_" value="not for use" />
  <RadiusOfGyration name="Radius of gyration" units="m" value="not for use" />
  <SolubilityParameter name="Solubility parameter" units="J0.5/m1.5" value="not for use" />
  <DipoleMoment name="Dipole moment" units="Coulomb.m" value="not for use" />
  <VanDerWaalsVolume name="Van der Waals volume" units="m3/kmol" value="not for use" />
  <VanDerWaalsArea name="Van der Waals area" units="m2/kmol" value="not for use" />
  <HeatOfFormation name="IG heat of formation" units="J/kmol" value="not for use" />
  <GibbsEnergyOfFormation name="IG Gibbs energy of formation" units="J/kmol" value="not for use" />
  <AbsEntropy name="IG absolute entropy" units="J/kmol/K" value="not for use" />
  <HeatOfFusionAtMeltingPoint name="Heat of fusion at melting point" units="J/kmol" value="not for use" />
  <MatthiasCopemanC1 name="Mathias-Copeman C1" units="_" value="not for use" />
  <HeatOfCombustion name="Standard net heat of combustion LHV" units="J/kmol" value="not for use" />
  <SolidDensity name="Solid density" units="kmol/m3">
    <eqno value="not for use" />
    <A value="not for use" />
    <B value="not for use" />
    <Tmin units="K" value="not for use" />
    <Tmax units="K" value="not for use" />
  </SolidDensity>
  <LiquidDensity name="Liquid density" units="kmol/m3">
    <eqno value="not for use" />
    <A value="not for use" />
    <B value="not for use" />
    <C value="not for use" />
    <D value="not for use" />
    <Tmin units="K" value="not for use" />
    <Tmax units="K" value="not for use" />
  </LiquidDensity>
  <VaporPressure name="Vapour pressure" units="Pa">
    <eqno value="not for use" />
    <A value="not for use" />
    <B value="not for use" />
    <C value="not for use" />
    <D value="not for use" />
    <E value="not for use" />
    <Tmin units="K" value="not for use" />
    <Tmax units="K" value="not for use" />
  </VaporPressure>
  <HeatOfVaporization name="Heat of vaporization" units="J/kmol">
    <eqno value="not for use" />
    <A value="not for use" />
    <B value="not for use" />
    <C value="not for use" />
    <D value="not for use" />
    <E value="not for use" />
    <Tmin units="K" value="not for use" />
    <Tmax units="K" value="not for use" />
  </HeatOfVaporization>
  <SolidHeatCapacityCp name="Solid heat capacity" units="J/kmol/K">
    <eqno value="not for use" />
    <A value="not for use" />
    <B value="not for use" />
    <C value="not for use" />
    <D value="not for use" />
    <E value="not for use" />
    <Tmin units="K" value="not for use" />
    <Tmax units="K" value="not for use" />
  </SolidHeatCapacityCp>
  <LiquidHeatCapacityCp name="Liquid heat capacity" units="J/kmol/K">
    <eqno value="not for use" />
    <A value="not for use" />
    <B value="not for use" />
    <C value="not for use" />
    <D value="not for use" />
    <E value="not for use" />
    <Tmin units="K" value="not for use" />
    <Tmax units="K" value="not for use" />
  </LiquidHeatCapacityCp>
  <IdealGasHeatCapacityCp name="Ideal gas heat capacity" units="J/kmol/K">
    <eqno value="not for use" />
    <A value="not for use" />
    <B value="not for use" />
    <C value="not for use" />
    <D value="not for use" />
    <E value="not for use" />
    <Tmin units="K" value="not for use" />
    <Tmax units="K" value="not for use" />
  </IdealGasHeatCapacityCp>
  <SecondVirialCoefficient name="Second virial coefficient" units="m3/kmol">
    <eqno value="not for use" />
    <A value="not for use" />
    <B value="not for use" />
    <C value="not for use" />
    <D value="not for use" />
    <E value="not for use" />
    <Tmin units="K" value="not for use" />
    <Tmax units="K" value="not for use" />
  </SecondVirialCoefficient>
  <LiquidViscosity name="Liquid viscosity" units="Pa.s">
    <eqno value="not for use" />
    <A value="not for use" />
    <B value="not for use" />
    <C value="not for use" />
    <D value="not for use" />
    <E value="not for use" />
    <Tmin units="K" value="not for use" />
    <Tmax units="K" value="not for use" />
  </LiquidViscosity>
  <VaporViscosity name="Vapour viscosity" units="Pa.s">
    <eqno value="not for use" />
    <A value="not for use" />
    <B value="not for use" />
    <C value="not for use" />
    <D value="not for use" />
    <Tmin units="K" value="not for use" />
    <Tmax units="K" value="not for use" />
  </VaporViscosity>
  <LiquidThermalConductivity name="Liquid thermal conductivity" units="W/m/K">
    <eqno value="not for use" />
    <A value="not for use" />
    <B value="not for use" />
    <C value="not for use" />
    <D value="not for use" />
    <E value="not for use" />
    <Tmin units="K" value="not for use" />
    <Tmax units="K" value="not for use" />
  </LiquidThermalConductivity>
  <VaporThermalConductivity name="Vapour thermal conductivity" units="W/m/K">
    <eqno value="not for use" />
    <A value="not for use" />
    <B value="not for use" />
    <C value="not for use" />
    <D value="not for use" />
    <Tmin units="K" value="not for use" />
    <Tmax units="K" value="not for use" />
  </VaporThermalConductivity>
  <SurfaceTension name="Surface tension" units="N/m">
    <eqno value="not for use" />
    <A value="not for use" />
    <B value="not for use" />
    <C value="not for use" />
    <D value="not for use" />
    <E value="not for use" />
    <Tmin units="K" value="not for use" />
    <Tmax units="K" value="not for use" />
  </SurfaceTension>
  <RPPHeatCapacityCp name="Ideal gas heat capacity (RPP)" units="J/kmol/K">
    <eqno value="not for use" />
    <A value="not for use" />
    <B value="not for use" />
    <C value="not for use" />
    <D value="not for use" />
    <E value="not for use" />
    <Tmin units="K" value="not for use" />
    <Tmax units="K" value="not for use" />
  </RPPHeatCapacityCp>
  <RelativeStaticPermittivity name="Relative static permittivity" units="_">
    <eqno value="not for use" />
    <A value="not for use" />
    <B value="not for use" />
    <C value="not for use" />
    <Tmin units="K" value="not for use" />
    <Tmax units="K" value="not for use" />
  </RelativeStaticPermittivity>
  <AntoineVaporPressure name="Antoine" units="Pa">
    <eqno value="not for use" />
    <A value="not for use" />
    <B value="not for use" />
    <C value="not for use" />
    <Tmin units="K" value="not for use" />
    <Tmax units="K" value="not for use" />
  </AntoineVaporPressure>
  <LiquidViscosityRPS name="Liquid viscosity (RPS)" units="Pa.s">
    <eqno value="not for use" />
    <A value="not for use" />
    <B value="not for use" />
    <C value="not for use" />
    <Tmin units="K" value="not for use" />
    <Tmax units="K" value="not for use" />
  </LiquidViscosityRPS>
  <COSTALDVolume name="COSTLD characteristic volume (V*)" units="m3/kmol" value="not for use" />
  <DiameterLJ name="Lennard Jones diameter" units="m" value="not for use" />
  <EnergyLJ name="Lennard Jones energy" units="K" value="not for use" />
  <RacketParameter name="Rackett parameter" units="_" value="not for use" />
  <FullerVolume name="Fuller et al. diffusion volume" units="_" value="not for use" />
  <MatthiasCopemanC2 name="Mathias-Copeman C2" units="_" value="not for use" />
  <Parachor name="Parachor" units="kg0.25.m3/s0.5/kmol" value="not for use" />
  <SpecificGravity name="Specific gravity" units="_" value="not for use" />
  <Charge name="Charge" units="_" value="not for use" />
  <CostaldAcentricFactor name="SRK acentric factor" units="_" value="not for use" />
  <WilsonVolume name="Wilson volume" units="m3/kmol" value="not for use" />
  <UniquacR name="UNIQUAC r" units="_" value="not for use" />
  <UniquacQ name="UNIQUAC q" units="_" value="not for use" />
  <UniquacQP name="UNIQUAC q'" units="_" value="not for use" />
  <ApiSrkS2 name="API-SRK s2" units="_" value="not for use" />
  <MatthiasCopemanC3 name="Mathias-Copeman C3" units="_" value="not for use" />
  <ChaoSeaderAcentricFactor name="Chao-Seader acentric factor" units="_" value="not for use" />
  <ChaoSeaderSolubilityParameter name="Chao-Seader solubility parameter" units="J0.5/m1.5" value="not for use" />
  <ChaoSeaderLiquidVolume name="Chao-Seader liquid volume" units="m3/kmol" value="not for use" />
  <UnifacVLE name="UNIFAC">
    <group id="not for use" value="not for use" />
  </UnifacVLE>
  <UnifacLLE name="UNIFAC-LLE">
    <group id="not for use" value="not for use" />
  </UnifacLLE>
  <Asog name="ASOG">
    <group id="not for use" value="not for use" />
  </Asog>
  <GCmethod name="PPR78">
    <group id="not for use" value="not for use" />
  </GCmethod>
  <Umr name="UMR">
    <group id="not for use" value="not for use" />
  </Umr>
  <ModifiedUnifac name="Modified UNIFAC">
    <group id="not for use" value="not for use" />
  </ModifiedUnifac>
  <CAS name="CAS number" value="not for use" />
  <Smiles name="SMILES" value="not for use" />
</compound>