<compound>
<LibraryIndex name="Index" value="2856" />
<CompoundID name="Name" value="n,n-dimethylacetamide" />
<StructureFormula name="Structure" value="(CH3)2NCOCH3" />
<Family name="Family" value="68" />
<CriticalTemperature name="Critical temperature" units="K" value="658" />
<CriticalPressure name="Critical pressure" units="Pa" value="4030000" />
<CriticalVolume name="Critical volume" units="m3/kmol" value="0.321" />
<CriticalCompressibility name="Critical compressibility factor" units="_" value="0.236" />
<NormalBoilingPointTemperature name="Normal boiling point" units="K" value="439.25" />
<NormalMeltingPointTemperature name="Melting point" units="K" value="253.15" />
<TriplePointTemperature name="Triple point temperature" units="K" value="253.15" />
<TriplePointPressure name="Triple point pressure" units="Pa" value="7.64072" />
<MolecularWeight name="Molecular weight" units="kg/kmol" value="87.12036" />
<LiquidVolumeAtNormalBoilingPoint name="Liquid molar volume at normal boiling point" units="m3/kmol" value="0.0930285" />
<AcentricityFactor name="Acentric factor" units="_" value="0.363509" />
<RadiusOfGyration name="Radius of gyration" units="m" value="3.368E-10" />
<SolubilityParameter name="Solubility parameter" units="J0.5/m1.5" value="22350" />
<DipoleMoment name="Dipole moment" units="Coulomb.m" value="1.27088E-29" />
<VanDerWaalsVolume name="Van der Waals volume" units="m3/kmol" value="0.05704" />
<VanDerWaalsArea name="Van der Waals area" units="m2/kmol" value="8.19E+08" />
<HeatOfFormation name="IG heat of formation" units="J/kmol" value="-2.25E+08" />
<GibbsEnergyOfFormation name="IG Gibbs energy of formation" units="J/kmol" value="-8.85E+07" />
<AbsEntropy name="IG absolute entropy" units="J/kmol/K" value="351000" />
<HeatOfFusionAtMeltingPoint name="Heat of fusion at melting point" units="J/kmol" value="1.04182E+07" />
<HeatOfCombustion name="Standard net heat of combustion LHV" units="J/kmol" value="-2.38E+09" />
<SolidDensity name="Solid density" units="kmol/m3">
  <eqno value="2" />
  <A value="14.194" />
  <B value="-0.0062154" />
  <Tmin units="K" value="101.26" />
  <Tmax units="K" value="253.15" />
  </SolidDensity>
<LiquidDensity name="Liquid density" units="kmol/m3">
  <eqno value="105" />
  <A value="0.72553" />
  <B value="0.2328" />
  <C value="658" />
  <D value="0.27034" />
  <Tmin units="K" value="253.15" />
  <Tmax units="K" value="636.69" />
  </LiquidDensity>
<VaporPressure name="Vapour pressure" units="Pa">
  <eqno value="101" />
  <A value="67.333" />
  <B value="-7592.9" />
  <C value="-6.3978" />
  <D value="0.0000021543" />
  <E value="2" />
  <Tmin units="K" value="253.15" />
  <Tmax units="K" value="658" />
  </VaporPressure>
<HeatOfVaporization name="Heat of vaporization" units="J/kmol">
  <eqno value="106" />
  <A value="5.8939E+07" />
  <B value="0.34564" />
  <C value="-0.28415" />
  <D value="0.52832" />
  <E value="-0.2171" />
  <Tmin units="K" value="253.15" />
  <Tmax units="K" value="636.69" />
  </HeatOfVaporization>
<SolidHeatCapacityCp name="Solid heat capacity" units="J/kmol/K">
  <eqno value="100" />
  <A value="5764.2" />
  <B value="751.46" />
  <C value="-1.5181" />
  <D value="0.004037" />
  <E value="-0.0000047604" />
  <Tmin units="K" value="50" />
  <Tmax units="K" value="253.15" />
  </SolidHeatCapacityCp>
<LiquidHeatCapacityCp name="Liquid heat capacity" units="J/kmol/K">
  <eqno value="16" />
  <A value="175450" />
  <B value="252.77" />
  <C value="11.249" />
  <D value="-0.052983" />
  <E value="0.00011812" />
  <Tmin units="K" value="293.15" />
  <Tmax units="K" value="409" />
  </LiquidHeatCapacityCp>
<IdealGasHeatCapacityCp name="Ideal gas heat capacity" units="J/kmol/K">
  <eqno value="16" />
  <A value="41899" />
  <B value="-423.52" />
  <C value="12.444" />
  <D value="0.00039958" />
  <E value="-1.2339E-07" />
  <Tmin units="K" value="300" />
  <Tmax units="K" value="1500" />
  </IdealGasHeatCapacityCp>
<SecondVirialCoefficient name="Second virial coefficient" units="m3/kmol">
  <eqno value="104" />
  <A value="0.22953" />
  <B value="-303.05" />
  <C value="-68.186" />
  <D value="-13212" />
  <E value="-9988.7" />
  <Tmin units="K" value="329" />
  <Tmax units="K" value="2000" />
  </SecondVirialCoefficient>
<LiquidViscosity name="Liquid viscosity" units="Pa.s">
  <eqno value="101" />
  <A value="16.727" />
  <B value="-219.71" />
  <C value="-4.0135" />
  <D value="-0.0000013942" />
  <E value="2" />
  <Tmin units="K" value="253.15" />
  <Tmax units="K" value="439.25" />
  </LiquidViscosity>
<VaporViscosity name="Vapour viscosity" units="Pa.s">
  <eqno value="102" />
  <A value="3.4592E-07" />
  <B value="0.64442" />
  <C value="412.29" />
  <D value="-8784" />
  <Tmin units="K" value="439.25" />
  <Tmax units="K" value="1000" />
  </VaporViscosity>
<LiquidThermalConductivity name="Liquid thermal conductivity" units="W/m/K">
  <eqno value="16" />
  <A value="0.06447" />
  <B value="-206.75" />
  <C value="-0.7204" />
  <D value="0.00031649" />
  <E value="-0.000010441" />
  <Tmin units="K" value="253.15" />
  <Tmax units="K" value="439.25" />
  </LiquidThermalConductivity>
<VaporThermalConductivity name="Vapour thermal conductivity" units="W/m/K">
  <eqno value="102" />
  <A value="0.0011762" />
  <B value="0.72055" />
  <C value="943.06" />
  <D value="275760" />
  <Tmin units="K" value="253.15" />
  <Tmax units="K" value="1000" />
  </VaporThermalConductivity>
<SurfaceTension name="Surface tension" units="N/m">
  <eqno value="16" />
  <A value="-0.0049495" />
  <B value="166.75" />
  <C value="-4.146" />
  <D value="0.0038773" />
  <E value="-0.000009444" />
  <Tmin units="K" value="253.15" />
  <Tmax units="K" value="636.69" />
  </SurfaceTension>
<RPPHeatCapacityCp name="Ideal gas heat capacity (RPP)" units="J/kmol/K">
  <eqno value="4" />
  <A value="-9221.9" />
  <B value="475.24" />
  <C value="-0.26167" />
  <D value="0.000056823" />
  <Tmin units="K" value="300" />
  <Tmax units="K" value="1500" />
  </RPPHeatCapacityCp>
<AntoineVaporPressure name="Antoine" units="Pa">
  <eqno value="10" />
  <A value="21.469" />
  <B value="3699.8" />
  <C value="-66.946" />
  <Tmin units="K" value="402.31" />
  <Tmax units="K" value="572.77" />
  </AntoineVaporPressure>
<LiquidViscosityRPS name="Liquid viscosity (RPS)" units="Pa.s">
  <eqno value="13" />
  <A value="-2.5469" />
  <B value="-0.018051" />
  <C value="0.000010457" />
  <Tmin units="K" value="253.15" />
  <Tmax units="K" value="439.25" />
  </LiquidViscosityRPS>
<COSTALDVolume name="COSTLD characteristic volume (V*)" units="m3/kmol" value="0.304288" />
<DiameterLJ name="Lennard Jones diameter" units="m" value="7.226349E-10" />
<EnergyLJ name="Lennard Jones energy" units="K" value="237.4774" />
<RacketParameter name="Rackett parameter" units="_" value="0.2333" />
<FullerVolume name="Fuller et al. diffusion volume" units="_" value="95.04" />
<Parachor name="Parachor" units="kg0.25.m3/s0.5/kmol" value="0.0386" />
<SpecificGravity name="Specific gravity" units="_" value="0.94469" />
<Charge name="Charge" units="_" value="0" />
<CostaldAcentricFactor name="SRK acentric factor" units="_" value="0.363509" />
<WilsonVolume name="Wilson volume" units="m3/kmol" value="0.0930285" />
<UniquacR name="UNIQUAC r" units="_" value="3.760053" />
<UniquacQ name="UNIQUAC q" units="_" value="3.276" />
<ChaoSeaderAcentricFactor name="Chao-Seader acentric factor" units="_" value="0.363509" />
<ChaoSeaderSolubilityParameter name="Chao-Seader solubility parameter" units="J0.5/m1.5" value="22352.7" />
<ChaoSeaderLiquidVolume name="Chao-Seader liquid volume" units="m3/kmol" value="0.0930285" />
<UnifacVLE name="UNIFAC">
  <group id="1" value="1" />
  <group id="97" value="1" />
  </UnifacVLE>
<Umr name="UMR">
  <group id="1" value="1" />
  <group id="97" value="1" />
  </Umr>
<ModifiedUnifac name="Modified UNIFAC">
  <group id="1" value="1" />
  <group id="101" value="1" />
  </ModifiedUnifac>
<CAS name="CAS number" value="127-19-5" />
<Smiles name="SMILES" value="CC(=O)N(C)C" />
</compound>

