<compound>
<LibraryIndex name="Index" value="1876" />
<CompoundID name="Name" value="n,n-dimethylformamide" />
<StructureFormula name="Structure" value="HCON(CH3)2" />
<Family name="Family" value="68" />
<CriticalTemperature name="Critical temperature" units="K" value="649.6" />
<CriticalPressure name="Critical pressure" units="Pa" value="4420000" />
<CriticalVolume name="Critical volume" units="m3/kmol" value="0.26199" />
<CriticalCompressibility name="Critical compressibility factor" units="_" value="0.214" />
<NormalBoilingPointTemperature name="Normal boiling point" units="K" value="425.15" />
<NormalMeltingPointTemperature name="Melting point" units="K" value="212.72" />
<TriplePointTemperature name="Triple point temperature" units="K" value="212.72" />
<TriplePointPressure name="Triple point pressure" units="Pa" value="0.195325" />
<MolecularWeight name="Molecular weight" units="kg/kmol" value="73.09378" />
<LiquidVolumeAtNormalBoilingPoint name="Liquid molar volume at normal boiling point" units="m3/kmol" value="0.0773903" />
<AcentricityFactor name="Acentric factor" units="_" value="0.31771" />
<RadiusOfGyration name="Radius of gyration" units="m" value="3.027E-10" />
<SolubilityParameter name="Solubility parameter" units="J0.5/m1.5" value="23960" />
<DipoleMoment name="Dipole moment" units="Coulomb.m" value="1.27E-29" />
<VanDerWaalsVolume name="Van der Waals volume" units="m3/kmol" value="0.04681" />
<VanDerWaalsArea name="Van der Waals area" units="m2/kmol" value="6.84E+08" />
<HeatOfFormation name="IG heat of formation" units="J/kmol" value="-1.917E+08" />
<GibbsEnergyOfFormation name="IG Gibbs energy of formation" units="J/kmol" value="-8.84E+07" />
<AbsEntropy name="IG absolute entropy" units="J/kmol/K" value="326000" />
<HeatOfFusionAtMeltingPoint name="Heat of fusion at melting point" units="J/kmol" value="1.615E+07" />
<MatthiasCopemanC1 name="Mathias-Copeman C1" units="_" value="1.19402" />
<HeatOfCombustion name="Standard net heat of combustion LHV" units="J/kmol" value="-1.78871E+09" />
<SolidDensity name="Solid density" units="kmol/m3">
  <eqno value="2" />
  <A value="17.71" />
  <B value="-0.0092912" />
  <Tmin units="K" value="85.09" />
  <Tmax units="K" value="212.72" />
  </SolidDensity>
<LiquidDensity name="Liquid density" units="kmol/m3">
  <eqno value="105" />
  <A value="0.65216" />
  <B value="0.20032" />
  <C value="649.6" />
  <D value="0.24418" />
  <Tmin units="K" value="212.72" />
  <Tmax units="K" value="649.6" />
  </LiquidDensity>
<VaporPressure name="Vapour pressure" units="Pa">
  <eqno value="101" />
  <A value="68.99879" />
  <B value="-7311.388" />
  <C value="-6.749791" />
  <D value="3.063845E-06" />
  <E value="2" />
  <Tmin units="K" value="212.72" />
  <Tmax units="K" value="649.6" />
  </VaporPressure>
<HeatOfVaporization name="Heat of vaporization" units="J/kmol">
  <eqno value="106" />
  <A value="5.7496E+07" />
  <B value="0.2466" />
  <C value="0.21619" />
  <D value="-0.11587" />
  <E value="0.026126" />
  <Tmin units="K" value="212.72" />
  <Tmax units="K" value="649.6" />
  </HeatOfVaporization>
<SolidHeatCapacityCp name="Solid heat capacity" units="J/kmol/K">
  <eqno value="100" />
  <A value="21466" />
  <B value="82.722" />
  <C value="-0.65111" />
  <D value="0.003066" />
  <E value="-0.0000053042" />
  <Tmin units="K" value="83" />
  <Tmax units="K" value="208" />
  </SolidHeatCapacityCp>
<LiquidHeatCapacityCp name="Liquid heat capacity" units="J/kmol/K">
  <eqno value="16" />
  <A value="141440" />
  <B value="162.91" />
  <C value="4.0696" />
  <D value="0.019381" />
  <E value="-0.000013063" />
  <Tmin units="K" value="273.82" />
  <Tmax units="K" value="466.44" />
  </LiquidHeatCapacityCp>
<IdealGasHeatCapacityCp name="Ideal gas heat capacity" units="J/kmol/K">
  <eqno value="16" />
  <A value="68728" />
  <B value="-846.07" />
  <C value="13.139" />
  <D value="-0.00064688" />
  <E value="1.6133E-07" />
  <Tmin units="K" value="200" />
  <Tmax units="K" value="1500" />
  </IdealGasHeatCapacityCp>
<SecondVirialCoefficient name="Second virial coefficient" units="m3/kmol">
  <eqno value="104" />
  <A value="0.30845" />
  <B value="-426.73" />
  <C value="-16.98" />
  <D value="-72873" />
  <E value="162690" />
  <Tmin units="K" value="298.28" />
  <Tmax units="K" value="1500" />
  </SecondVirialCoefficient>
<LiquidViscosity name="Liquid viscosity" units="Pa.s">
  <eqno value="101" />
  <A value="-9.089031" />
  <B value="826.091" />
  <C value="-0.0843389" />
  <D value="-3.479212E-06" />
  <E value="2" />
  <Tmin units="K" value="240" />
  <Tmax units="K" value="550" />
  </LiquidViscosity>
<VaporViscosity name="Vapour viscosity" units="Pa.s">
  <eqno value="102" />
  <A value="0.0000034602" />
  <B value="0.37991" />
  <C value="1156.9" />
  <D value="8715.8" />
  <Tmin units="K" value="212.72" />
  <Tmax units="K" value="1000" />
  </VaporViscosity>
<LiquidThermalConductivity name="Liquid thermal conductivity" units="W/m/K">
  <eqno value="16" />
  <A value="0.14084" />
  <B value="-2496" />
  <C value="20.244" />
  <D value="-0.064914" />
  <E value="0.000049356" />
  <Tmin units="K" value="250" />
  <Tmax units="K" value="425.15" />
  </LiquidThermalConductivity>
<VaporThermalConductivity name="Vapour thermal conductivity" units="W/m/K">
  <eqno value="102" />
  <A value="0.015205" />
  <B value="0.35461" />
  <C value="594.92" />
  <D value="741220" />
  <Tmin units="K" value="212.72" />
  <Tmax units="K" value="1000" />
  </VaporThermalConductivity>
<SurfaceTension name="Surface tension" units="N/m">
  <eqno value="16" />
  <A value="-0.069456" />
  <B value="-10.189" />
  <C value="-1.894" />
  <D value="-0.0010897" />
  <E value="-1.2078E-07" />
  <Tmin units="K" value="212.72" />
  <Tmax units="K" value="649.6" />
  </SurfaceTension>
<RPPHeatCapacityCp name="Ideal gas heat capacity (RPP)" units="J/kmol/K">
  <eqno value="4" />
  <A value="6716" />
  <B value="349.57" />
  <C value="-0.18657" />
  <D value="0.000033656" />
  <Tmin units="K" value="200" />
  <Tmax units="K" value="1500" />
  </RPPHeatCapacityCp>
<RelativeStaticPermittivity name="Relative static permittivity" units="_">
  <eqno value="120" />
  <A value="-5.780432" />
  <B value="-10711.33" />
  <C value="-45.18602" />
  <Tmin units="K" value="253" />
  <Tmax units="K" value="649" />
  </RelativeStaticPermittivity>
<AntoineVaporPressure name="Antoine" units="Pa">
  <eqno value="10" />
  <A value="21.586" />
  <B value="3764.7" />
  <C value="-50.993" />
  <Tmin units="K" value="396.67" />
  <Tmax units="K" value="580.62" />
  </AntoineVaporPressure>
<LiquidViscosityRPS name="Liquid viscosity (RPS)" units="Pa.s">
  <eqno value="13" />
  <A value="0.0021666" />
  <B value="-0.035024" />
  <C value="0.000037609" />
  <Tmin units="K" value="240" />
  <Tmax units="K" value="425.15" />
  </LiquidViscosityRPS>
<COSTALDVolume name="COSTLD characteristic volume (V*)" units="m3/kmol" value="0.24059" />
<DiameterLJ name="Lennard Jones diameter" units="m" value="7.594689E-10" />
<EnergyLJ name="Lennard Jones energy" units="K" value="164.8347" />
<FullerVolume name="Fuller et al. diffusion volume" units="_" value="74.52" />
<MatthiasCopemanC2 name="Mathias-Copeman C2" units="_" value="-0.74822" />
<Parachor name="Parachor" units="kg0.25.m3/s0.5/kmol" value="0.0342" />
<SpecificGravity name="Specific gravity" units="_" value="0.953395" />
<Charge name="Charge" units="_" value="0" />
<CostaldAcentricFactor name="SRK acentric factor" units="_" value="0.3672" />
<WilsonVolume name="Wilson volume" units="m3/kmol" value="0.0773743" />
<UniquacR name="UNIQUAC r" units="_" value="3.0856" />
<UniquacQ name="UNIQUAC q" units="_" value="2.736" />
<MatthiasCopemanC3 name="Mathias-Copeman C3" units="_" value="0.60584" />
<ChaoSeaderAcentricFactor name="Chao-Seader acentric factor" units="_" value="0.375516" />
<ChaoSeaderSolubilityParameter name="Chao-Seader solubility parameter" units="J0.5/m1.5" value="23964.9" />
<ChaoSeaderLiquidVolume name="Chao-Seader liquid volume" units="m3/kmol" value="0.0773743" />
<UnifacVLE name="UNIFAC">
  <group id="72" value="1" />
  </UnifacVLE>
<GCmethod name="PPR78">
  <group id="72" value="1" />
  </GCmethod>
<Umr name="UMR">
  <group id="72" value="1" />
  </Umr>
<ModifiedUnifac name="Modified UNIFAC">
  <group id="72" value="1" />
  </ModifiedUnifac>
<CAS name="CAS number" value="68-12-2" />
<Smiles name="SMILES" value="CN(C)C=O" />
</compound>

