<compound>
<LibraryIndex name="Index" value="1315" />
<CompoundID name="Name" value="n-butyl acetate" />
<StructureFormula name="Structure" value="CH3COO(CH2)3CH3" />
<Family name="Family" value="56" />
<CriticalTemperature name="Critical temperature" units="K" value="579" />
<CriticalPressure name="Critical pressure" units="Pa" value="3090000" />
<CriticalVolume name="Critical volume" units="m3/kmol" value="0.4128" />
<CriticalCompressibility name="Critical compressibility factor" units="_" value="0.253" />
<NormalBoilingPointTemperature name="Normal boiling point" units="K" value="399.12" />
<NormalMeltingPointTemperature name="Melting point" units="K" value="199.65" />
<TriplePointTemperature name="Triple point temperature" units="K" value="199.65" />
<TriplePointPressure name="Triple point pressure" units="Pa" value="0.0816516" />
<MolecularWeight name="Molecular weight" units="kg/kmol" value="116.1583" />
<LiquidVolumeAtNormalBoilingPoint name="Liquid molar volume at normal boiling point" units="m3/kmol" value="0.13251" />
<AcentricityFactor name="Acentric factor" units="_" value="0.407" />
<RadiusOfGyration name="Radius of gyration" units="m" value="4.28E-10" />
<SolubilityParameter name="Solubility parameter" units="J0.5/m1.5" value="17670" />
<DipoleMoment name="Dipole moment" units="Coulomb.m" value="6.14E-30" />
<VanDerWaalsVolume name="Van der Waals volume" units="m3/kmol" value="0.07323" />
<VanDerWaalsArea name="Van der Waals area" units="m2/kmol" value="1.049E+09" />
<HeatOfFormation name="IG heat of formation" units="J/kmol" value="-4.856E+08" />
<GibbsEnergyOfFormation name="IG Gibbs energy of formation" units="J/kmol" value="-3.123E+08" />
<AbsEntropy name="IG absolute entropy" units="J/kmol/K" value="442500" />
<HeatOfFusionAtMeltingPoint name="Heat of fusion at melting point" units="J/kmol" value="1.44E+07" />
<MatthiasCopemanC1 name="Mathias-Copeman C1" units="_" value="1.09" />
<HeatOfCombustion name="Standard net heat of combustion LHV" units="J/kmol" value="-3.283E+09" />
<SolidDensity name="Solid density" units="kmol/m3">
  <eqno value="2" />
  <A value="10.567" />
  <B value="-0.0057964" />
  <C value="0" />
  <D value="0" />
  <E value="0" />
  <Tmin units="K" value="79.86" />
  <Tmax units="K" value="199.65" />
  </SolidDensity>
<LiquidDensity name="Liquid density" units="kmol/m3">
  <eqno value="105" />
  <A value="0.13588" />
  <B value="0.1193" />
  <C value="579" />
  <D value="0.16305" />
  <Tmin units="K" value="199.65" />
  <Tmax units="K" value="575.4" />
  </LiquidDensity>
<VaporPressure name="Vapour pressure" units="Pa">
  <eqno value="101" />
  <A value="90.42793" />
  <B value="-7625.342" />
  <C value="-10.22284" />
  <D value="8.987208E-06" />
  <E value="2" />
  <Tmin units="K" value="199.65" />
  <Tmax units="K" value="575.4" />
  </VaporPressure>
<HeatOfVaporization name="Heat of vaporization" units="J/kmol">
  <eqno value="106" />
  <A value="8.192574E+07" />
  <B value="1.151594" />
  <C value="0.0889674" />
  <D value="-1.859865" />
  <E value="1.113952" />
  <Tmin units="K" value="199.65" />
  <Tmax units="K" value="575.4" />
  </HeatOfVaporization>
<SolidHeatCapacityCp name="Solid heat capacity" units="J/kmol/K">
  <eqno value="1" />
  <A value="182900" />
  <Tmin units="K" value="0" />
  <Tmax units="K" value="579" />
  </SolidHeatCapacityCp>
<LiquidHeatCapacityCp name="Liquid heat capacity" units="J/kmol/K">
  <eqno value="16" />
  <A value="201710" />
  <B value="-19.025" />
  <C value="8.0191" />
  <D value="0.0068889" />
  <E value="0.0000021505" />
  <Tmin units="K" value="202.7" />
  <Tmax units="K" value="461.7" />
  </LiquidHeatCapacityCp>
<IdealGasHeatCapacityCp name="Ideal gas heat capacity" units="J/kmol/K">
  <eqno value="16" />
  <A value="92876" />
  <B value="-666.17" />
  <C value="13.432" />
  <D value="-0.00066148" />
  <E value="3.0678E-07" />
  <Tmin units="K" value="273" />
  <Tmax units="K" value="1200" />
  </IdealGasHeatCapacityCp>
<SecondVirialCoefficient name="Second virial coefficient" units="m3/kmol">
  <eqno value="104" />
  <A value="0.22835" />
  <B value="-267.19" />
  <C value="-64.731" />
  <D value="-23119" />
  <E value="30658" />
  <Tmin units="K" value="289.5" />
  <Tmax units="K" value="1737" />
  </SecondVirialCoefficient>
<LiquidViscosity name="Liquid viscosity" units="Pa.s">
  <eqno value="101" />
  <A value="-17.008" />
  <B value="1461.1" />
  <C value="0.8424" />
  <D value="1.1193E-07" />
  <E value="2" />
  <Tmin units="K" value="250" />
  <Tmax units="K" value="399.26" />
  </LiquidViscosity>
<VaporViscosity name="Vapour viscosity" units="Pa.s">
  <eqno value="102" />
  <A value="1.0488E-07" />
  <B value="0.76809" />
  <C value="52.337" />
  <D value="8271.1" />
  <Tmin units="K" value="199.65" />
  <Tmax units="K" value="1000" />
  </VaporViscosity>
<LiquidThermalConductivity name="Liquid thermal conductivity" units="W/m/K">
  <eqno value="16" />
  <A value="0.04366" />
  <B value="-125.65" />
  <C value="-0.40686" />
  <D value="-0.0059305" />
  <E value="0.0000024167" />
  <Tmin units="K" value="199.65" />
  <Tmax units="K" value="463.15" />
  </LiquidThermalConductivity>
<VaporThermalConductivity name="Vapour thermal conductivity" units="W/m/K">
  <eqno value="102" />
  <A value="5.9364E-09" />
  <B value="2.3739" />
  <C value="-402.22" />
  <D value="69606" />
  <Tmin units="K" value="199.65" />
  <Tmax units="K" value="800" />
  </VaporThermalConductivity>
<SurfaceTension name="Surface tension" units="N/m">
  <eqno value="16" />
  <A value="-0.016732" />
  <B value="17.559" />
  <C value="-2.7905" />
  <D value="-0.00064121" />
  <E value="-0.0000029118" />
  <Tmin units="K" value="199.65" />
  <Tmax units="K" value="575.4" />
  </SurfaceTension>
<RPPHeatCapacityCp name="Ideal gas heat capacity (RPP)" units="J/kmol/K">
  <eqno value="4" />
  <A value="-22630" />
  <B value="742.91" />
  <C value="-0.55184" />
  <D value="0.0001701" />
  <Tmin units="K" value="273" />
  <Tmax units="K" value="1200" />
  </RPPHeatCapacityCp>
<RelativeStaticPermittivity name="Relative static permittivity" units="_">
  <eqno value="120" />
  <A value="-4.114462" />
  <B value="-2550" />
  <C value="-15.3" />
  <Tmin units="K" value="273.0389" />
  <Tmax units="K" value="443.0389" />
  </RelativeStaticPermittivity>
<AntoineVaporPressure name="Antoine" units="Pa">
  <eqno value="10" />
  <A value="21.225" />
  <B value="3242.2" />
  <C value="-64.854" />
  <Tmin units="K" value="349.03" />
  <Tmax units="K" value="516.07" />
  </AntoineVaporPressure>
<LiquidViscosityRPS name="Liquid viscosity (RPS)" units="Pa.s">
  <eqno value="12" />
  <A value="-3.8704" />
  <B value="-0.011433" />
  <Tmin units="K" value="250" />
  <Tmax units="K" value="399.26" />
  </LiquidViscosityRPS>
<COSTALDVolume name="COSTLD characteristic volume (V*)" units="m3/kmol" value="0.39539" />
<DiameterLJ name="Lennard Jones diameter" units="m" value="7.229034E-10" />
<EnergyLJ name="Lennard Jones energy" units="K" value="268.4266" />
<RacketParameter name="Rackett parameter" units="_" value="0.253" />
<FullerVolume name="Fuller et al. diffusion volume" units="_" value="135.34" />
<MatthiasCopemanC2 name="Mathias-Copeman C2" units="_" value="0" />
<Parachor name="Parachor" units="kg0.25.m3/s0.5/kmol" value="0.0528122" />
<SpecificGravity name="Specific gravity" units="_" value="0.885234" />
<Charge name="Charge" units="_" value="0" />
<CostaldAcentricFactor name="SRK acentric factor" units="_" value="0.407" />
<WilsonVolume name="Wilson volume" units="m3/kmol" value="0.13251" />
<UniquacR name="UNIQUAC r" units="_" value="4.8274" />
<UniquacQ name="UNIQUAC q" units="_" value="4.196" />
<MatthiasCopemanC3 name="Mathias-Copeman C3" units="_" value="0" />
<ChaoSeaderAcentricFactor name="Chao-Seader acentric factor" units="_" value="0.407" />
<ChaoSeaderSolubilityParameter name="Chao-Seader solubility parameter" units="J0.5/m1.5" value="17670" />
<ChaoSeaderLiquidVolume name="Chao-Seader liquid volume" units="m3/kmol" value="0.13251" />
<UnifacVLE name="UNIFAC">
  <group id="1" value="1" />
  <group id="2" value="3" />
  <group id="22" value="1" />
  </UnifacVLE>
<UnifacLLE name="UNIFAC-LLE">
  <group id="1" value="1" />
  <group id="2" value="3" />
  <group id="25" value="1" />
  </UnifacLLE>
<Asog name="ASOG">
  <group id="1" value="2" />
  <group id="2" value="3" />
  <group id="22" value="1" />
  </Asog>
<Umr name="UMR">
  <group id="1" value="1" />
  <group id="2" value="3" />
  <group id="22" value="1" />
  </Umr>
<ModifiedUnifac name="Modified UNIFAC">
  <group id="1" value="1" />
  <group id="2" value="3" />
  <group id="21" value="1" />
  </ModifiedUnifac>
<CAS name="CAS number" value="123-86-4" />
<Smiles name="SMILES" value="CC(=O)OCCCC" />
</compound>

