<compound>
<LibraryIndex name="Index" value="518" />
<CompoundID name="Name" value="n-butylbenzene" />
<StructureFormula name="Structure" value="(C6H5)(CH2)3CH3" />
<Family name="Family" value="16" />
<CriticalTemperature name="Critical temperature" units="K" value="660.5" />
<CriticalPressure name="Critical pressure" units="Pa" value="2890000" />
<CriticalVolume name="Critical volume" units="m3/kmol" value="0.497" />
<CriticalCompressibility name="Critical compressibility factor" units="_" value="0.262" />
<NormalBoilingPointTemperature name="Normal boiling point" units="K" value="456.42" />
<NormalMeltingPointTemperature name="Melting point" units="K" value="185.3" />
<TriplePointTemperature name="Triple point temperature" units="K" value="185.3" />
<TriplePointPressure name="Triple point pressure" units="Pa" value="0.000154386" />
<MolecularWeight name="Molecular weight" units="kg/kmol" value="134.2182" />
<LiquidVolumeAtNormalBoilingPoint name="Liquid molar volume at normal boiling point" units="m3/kmol" value="0.15678" />
<AcentricityFactor name="Acentric factor" units="_" value="0.393" />
<RadiusOfGyration name="Radius of gyration" units="m" value="4.849E-10" />
<SolubilityParameter name="Solubility parameter" units="J0.5/m1.5" value="17510" />
<DipoleMoment name="Dipole moment" units="Coulomb.m" value="1.23E-30" />
<VanDerWaalsVolume name="Van der Waals volume" units="m3/kmol" value="0.0902" />
<VanDerWaalsArea name="Van der Waals area" units="m2/kmol" value="1.147E+09" />
<HeatOfFormation name="IG heat of formation" units="J/kmol" value="-1.314E+07" />
<GibbsEnergyOfFormation name="IG Gibbs energy of formation" units="J/kmol" value="1.454E+08" />
<AbsEntropy name="IG absolute entropy" units="J/kmol/K" value="439490" />
<HeatOfFusionAtMeltingPoint name="Heat of fusion at melting point" units="J/kmol" value="1.122E+07" />
<MatthiasCopemanC1 name="Mathias-Copeman C1" units="_" value="1.218" />
<HeatOfCombustion name="Standard net heat of combustion LHV" units="J/kmol" value="-5.5644E+09" />
<SolidDensity name="Solid density" units="kmol/m3">
  <eqno value="2" />
  <A value="8.915" />
  <B value="-0.0053456" />
  <Tmin units="K" value="74.12" />
  <Tmax units="K" value="185.3" />
  </SolidDensity>
<LiquidDensity name="Liquid density" units="kmol/m3">
  <eqno value="105" />
  <A value="0.50648" />
  <B value="0.25203" />
  <C value="660.5" />
  <D value="0.29203" />
  <Tmin units="K" value="183.15" />
  <Tmax units="K" value="660.5" />
  </LiquidDensity>
<VaporPressure name="Vapour pressure" units="Pa">
  <eqno value="101" />
  <A value="100.11" />
  <B value="-9186.6" />
  <C value="-11.379" />
  <D value="0.0000058585" />
  <E value="2" />
  <Tmin units="K" value="185.3" />
  <Tmax units="K" value="660.5" />
  </VaporPressure>
<HeatOfVaporization name="Heat of vaporization" units="J/kmol">
  <eqno value="106" />
  <A value="6.5698E+07" />
  <B value="0.30842" />
  <C value="0.67062" />
  <D value="-1.1135" />
  <E value="0.53276" />
  <Tmin units="K" value="185.3" />
  <Tmax units="K" value="660.5" />
  </HeatOfVaporization>
<SolidHeatCapacityCp name="Solid heat capacity" units="J/kmol/K">
  <eqno value="100" />
  <A value="-18859" />
  <B value="1942.8" />
  <C value="-11.998" />
  <D value="0.0352" />
  <E value="-0.0000012248" />
  <Tmin units="K" value="15.46" />
  <Tmax units="K" value="176.91" />
  </SolidHeatCapacityCp>
<LiquidHeatCapacityCp name="Liquid heat capacity" units="J/kmol/K">
  <eqno value="16" />
  <A value="173590" />
  <B value="115.14" />
  <C value="7.4501" />
  <D value="0.014631" />
  <E value="-0.000011875" />
  <Tmin units="K" value="185.3" />
  <Tmax units="K" value="400" />
  </LiquidHeatCapacityCp>
<IdealGasHeatCapacityCp name="Ideal gas heat capacity" units="J/kmol/K">
  <eqno value="16" />
  <A value="97423" />
  <B value="-619.62" />
  <C value="13.35" />
  <D value="-0.000032816" />
  <E value="-9.3502E-09" />
  <Tmin units="K" value="200" />
  <Tmax units="K" value="1500" />
  </IdealGasHeatCapacityCp>
<SecondVirialCoefficient name="Second virial coefficient" units="m3/kmol">
  <eqno value="104" />
  <A value="0.28148" />
  <B value="-399.22" />
  <C value="-98.306" />
  <D value="-38470" />
  <E value="66230" />
  <Tmin units="K" value="330" />
  <Tmax units="K" value="1815" />
  </SecondVirialCoefficient>
<LiquidViscosity name="Liquid viscosity" units="Pa.s">
  <eqno value="101" />
  <A value="-18.829" />
  <B value="1737.7" />
  <C value="1.0385" />
  <D value="0.0000015468" />
  <E value="2" />
  <Tmin units="K" value="200" />
  <Tmax units="K" value="456.46" />
  </LiquidViscosity>
<VaporViscosity name="Vapour viscosity" units="Pa.s">
  <eqno value="102" />
  <A value="3.4687E-07" />
  <B value="0.59512" />
  <C value="233.67" />
  <D value="177.63" />
  <Tmin units="K" value="185.3" />
  <Tmax units="K" value="1000" />
  </VaporViscosity>
<LiquidThermalConductivity name="Liquid thermal conductivity" units="W/m/K">
  <eqno value="16" />
  <A value="0.081204" />
  <B value="245.71" />
  <C value="-5.5946" />
  <D value="0.01322" />
  <E value="-0.00002506" />
  <Tmin units="K" value="185.3" />
  <Tmax units="K" value="473.15" />
  </LiquidThermalConductivity>
<VaporThermalConductivity name="Vapour thermal conductivity" units="W/m/K">
  <eqno value="102" />
  <A value="0.19225" />
  <B value="-0.0011093" />
  <C value="-156.74" />
  <D value="1712400" />
  <Tmin units="K" value="185.3" />
  <Tmax units="K" value="1000" />
  </VaporThermalConductivity>
<SurfaceTension name="Surface tension" units="N/m">
  <eqno value="16" />
  <A value="-0.0077709" />
  <B value="39.218" />
  <C value="-3.1402" />
  <D value="0.00039689" />
  <E value="-0.0000047539" />
  <Tmin units="K" value="185.3" />
  <Tmax units="K" value="660.5" />
  </SurfaceTension>
<RPPHeatCapacityCp name="Ideal gas heat capacity (RPP)" units="J/kmol/K">
  <eqno value="100" />
  <A value="53961" />
  <B value="158.64" />
  <C value="1.3025" />
  <D value="-0.0018341" />
  <E value="7.3891E-07" />
  <Tmin units="K" value="200" />
  <Tmax units="K" value="1000" />
  </RPPHeatCapacityCp>
<AntoineVaporPressure name="Antoine" units="Pa">
  <eqno value="10" />
  <A value="21.151" />
  <B value="3770" />
  <C value="-64.789" />
  <Tmin units="K" value="400.04" />
  <Tmax units="K" value="585.47" />
  </AntoineVaporPressure>
<LiquidViscosityRPS name="Liquid viscosity (RPS)" units="Pa.s">
  <eqno value="13" />
  <A value="2.5752" />
  <B value="-0.047333" />
  <C value="0.000051973" />
  <Tmin units="K" value="200" />
  <Tmax units="K" value="456.46" />
  </LiquidViscosityRPS>
<COSTALDVolume name="COSTLD characteristic volume (V*)" units="m3/kmol" value="0.49211" />
<DiameterLJ name="Lennard Jones diameter" units="m" value="7.374551E-10" />
<EnergyLJ name="Lennard Jones energy" units="K" value="347.2727" />
<FullerVolume name="Fuller et al. diffusion volume" units="_" value="173.04" />
<MatthiasCopemanC2 name="Mathias-Copeman C2" units="_" value="-1.3181" />
<Parachor name="Parachor" units="kg0.25.m3/s0.5/kmol" value="0.064" />
<SpecificGravity name="Specific gravity" units="_" value="0.863174" />
<Charge name="Charge" units="_" value="0" />
<CostaldAcentricFactor name="SRK acentric factor" units="_" value="0.3921" />
<WilsonVolume name="Wilson volume" units="m3/kmol" value="0.156494" />
<UniquacR name="UNIQUAC r" units="_" value="5.946" />
<UniquacQ name="UNIQUAC q" units="_" value="4.588" />
<ApiSrkS2 name="API-SRK s2" units="_" value="-0.005215" />
<MatthiasCopemanC3 name="Mathias-Copeman C3" units="_" value="2.7426" />
<ChaoSeaderAcentricFactor name="Chao-Seader acentric factor" units="_" value="0.3923" />
<ChaoSeaderSolubilityParameter name="Chao-Seader solubility parameter" units="J0.5/m1.5" value="17450.9" />
<ChaoSeaderLiquidVolume name="Chao-Seader liquid volume" units="m3/kmol" value="0.156494" />
<UnifacVLE name="UNIFAC">
  <group id="1" value="1" />
  <group id="2" value="2" />
  <group id="10" value="5" />
  <group id="13" value="1" />
  </UnifacVLE>
<UnifacLLE name="UNIFAC-LLE">
  <group id="1" value="1" />
  <group id="2" value="2" />
  <group id="9" value="5" />
  <group id="12" value="1" />
  </UnifacLLE>
<Asog name="ASOG">
  <group id="1" value="1" />
  <group id="2" value="3" />
  <group id="10" value="5" />
  <group id="11" value="1" />
  </Asog>
<GCmethod name="PPR78">
  <group id="1" value="1" />
  <group id="2" value="3" />
  <group id="7" value="5" />
  <group id="8" value="1" />
  </GCmethod>
<Umr name="UMR">
  <group id="1" value="1" />
  <group id="2" value="3" />
  <group id="10" value="5" />
  <group id="11" value="1" />
  </Umr>
<ModifiedUnifac name="Modified UNIFAC">
  <group id="1" value="1" />
  <group id="2" value="3" />
  <group id="9" value="5" />
  <group id="10" value="1" />
  </ModifiedUnifac>
<CAS name="CAS number" value="104-51-8" />
<Smiles name="SMILES" value="c1(CCCC)ccccc1" />
</compound>

