<compound>
<LibraryIndex name="Index" value="56" />
<CompoundID name="Name" value="n-decane" />
<StructureFormula name="Structure" value="CH3(CH2)8CH3" />
<Family name="Family" value="1" />
<CriticalTemperature name="Critical temperature" units="K" value="617.7" />
<CriticalPressure name="Critical pressure" units="Pa" value="2110000" />
<CriticalVolume name="Critical volume" units="m3/kmol" value="0.624" />
<CriticalCompressibility name="Critical compressibility factor" units="_" value="0.256" />
<NormalBoilingPointTemperature name="Normal boiling point" units="K" value="447.3" />
<NormalMeltingPointTemperature name="Melting point" units="K" value="243.51" />
<TriplePointTemperature name="Triple point temperature" units="K" value="243.51" />
<TriplePointPressure name="Triple point pressure" units="Pa" value="1.39297" />
<MolecularWeight name="Molecular weight" units="kg/kmol" value="142.2817" />
<LiquidVolumeAtNormalBoilingPoint name="Liquid molar volume at normal boiling point" units="m3/kmol" value="0.19595" />
<AcentricityFactor name="Acentric factor" units="_" value="0.491" />
<RadiusOfGyration name="Radius of gyration" units="m" value="5.148E-10" />
<SolubilityParameter name="Solubility parameter" units="J0.5/m1.5" value="15720" />
<DipoleMoment name="Dipole moment" units="Coulomb.m" value="0" />
<VanDerWaalsVolume name="Van der Waals volume" units="m3/kmol" value="0.1092" />
<VanDerWaalsArea name="Van der Waals area" units="m2/kmol" value="1.504E+09" />
<HeatOfFormation name="IG heat of formation" units="J/kmol" value="-2.4946E+08" />
<GibbsEnergyOfFormation name="IG Gibbs energy of formation" units="J/kmol" value="3.318E+07" />
<AbsEntropy name="IG absolute entropy" units="J/kmol/K" value="545700" />
<HeatOfFusionAtMeltingPoint name="Heat of fusion at melting point" units="J/kmol" value="2.871E+07" />
<MatthiasCopemanC1 name="Mathias-Copeman C1" units="_" value="1.2407" />
<HeatOfCombustion name="Standard net heat of combustion LHV" units="J/kmol" value="-6.29422E+09" />
<SolidDensity name="Solid density" units="kmol/m3">
  <eqno value="2" />
  <A value="6.8978" />
  <B value="-0.0024599" />
  <Tmin units="K" value="193.15" />
  <Tmax units="K" value="243.51" />
  </SolidDensity>
<LiquidDensity name="Liquid density" units="kmol/m3">
  <eqno value="105" />
  <A value="0.37424" />
  <B value="0.2405" />
  <C value="617.7" />
  <D value="0.27182" />
  <Tmin units="K" value="243.51" />
  <Tmax units="K" value="617.7" />
  </LiquidDensity>
<VaporPressure name="Vapour pressure" units="Pa">
  <eqno value="101" />
  <A value="6.023802" />
  <B value="-5713.196" />
  <C value="3.410225" />
  <D value="-0.000012633" />
  <E value="2" />
  <Tmin units="K" value="243.51" />
  <Tmax units="K" value="617.7" />
  </VaporPressure>
<HeatOfVaporization name="Heat of vaporization" units="J/kmol">
  <eqno value="106" />
  <A value="5.7689E+07" />
  <B value="-1.1412" />
  <C value="5.1463" />
  <D value="-6.2946" />
  <E value="2.6623" />
  <Tmin units="K" value="243.51" />
  <Tmax units="K" value="617.7" />
  </HeatOfVaporization>
<SolidHeatCapacityCp name="Solid heat capacity" units="J/kmol/K">
  <eqno value="100" />
  <A value="-31951" />
  <B value="2362.8" />
  <C value="-10.206" />
  <D value="0.015203" />
  <E value="0.000023859" />
  <Tmin units="K" value="19.93" />
  <Tmax units="K" value="243.5" />
  </SolidHeatCapacityCp>
<LiquidHeatCapacityCp name="Liquid heat capacity" units="J/kmol/K">
  <eqno value="16" />
  <A value="160660" />
  <B value="291.43" />
  <C value="8.5687" />
  <D value="0.0098408" />
  <E value="-0.0000060811" />
  <Tmin units="K" value="242.3" />
  <Tmax units="K" value="460" />
  </LiquidHeatCapacityCp>
<IdealGasHeatCapacityCp name="Ideal gas heat capacity" units="J/kmol/K">
  <eqno value="16" />
  <A value="152020" />
  <B value="-697.29" />
  <C value="13.714" />
  <D value="-0.00021747" />
  <E value="4.9426E-08" />
  <Tmin units="K" value="200" />
  <Tmax units="K" value="1500" />
  </IdealGasHeatCapacityCp>
<SecondVirialCoefficient name="Second virial coefficient" units="m3/kmol">
  <eqno value="104" />
  <A value="0.42912" />
  <B value="-507.47" />
  <C value="-102.75" />
  <D value="-147160" />
  <E value="373570" />
  <Tmin units="K" value="309.23" />
  <Tmax units="K" value="1500" />
  </SecondVirialCoefficient>
<LiquidViscosity name="Liquid viscosity" units="Pa.s">
  <eqno value="101" />
  <A value="-102.98" />
  <B value="4517.9" />
  <C value="14.495" />
  <D value="-0.00002056" />
  <E value="2" />
  <Tmin units="K" value="240.05" />
  <Tmax units="K" value="617.7" />
  </LiquidViscosity>
<VaporViscosity name="Vapour viscosity" units="Pa.s">
  <eqno value="102" />
  <A value="2.3638E-08" />
  <B value="0.95886" />
  <C value="24.698" />
  <D value="7541.9" />
  <Tmin units="K" value="243.51" />
  <Tmax units="K" value="1000" />
  </VaporViscosity>
<LiquidThermalConductivity name="Liquid thermal conductivity" units="W/m/K">
  <eqno value="16" />
  <A value="0.071684" />
  <B value="-217.03" />
  <C value="-0.47424" />
  <D value="-0.0039028" />
  <E value="-0.0000049442" />
  <Tmin units="K" value="243.15" />
  <Tmax units="K" value="447.3" />
  </LiquidThermalConductivity>
<VaporThermalConductivity name="Vapour thermal conductivity" units="W/m/K">
  <eqno value="102" />
  <A value="-668.49" />
  <B value="0.93224" />
  <C value="-4.0687E+09" />
  <D value="-1.0176E+09" />
  <Tmin units="K" value="243.51" />
  <Tmax units="K" value="1000" />
  </VaporThermalConductivity>
<SurfaceTension name="Surface tension" units="N/m">
  <eqno value="16" />
  <A value="-0.0051431" />
  <B value="154.8" />
  <C value="-4.4562" />
  <D value="0.0041164" />
  <E value="-0.0000095358" />
  <Tmin units="K" value="243.51" />
  <Tmax units="K" value="617.7" />
  </SurfaceTension>
<RPPHeatCapacityCp name="Ideal gas heat capacity (RPP)" units="J/kmol/K">
  <eqno value="100" />
  <A value="111970" />
  <B value="34.414" />
  <C value="1.9229" />
  <D value="-0.002534" />
  <E value="9.9524E-07" />
  <Tmin units="K" value="200" />
  <Tmax units="K" value="1000" />
  </RPPHeatCapacityCp>
<RelativeStaticPermittivity name="Relative static permittivity" units="_">
  <eqno value="120" />
  <A value="-1.4825" />
  <B value="-1000" />
  <C value="-6" />
  <Tmin units="K" value="274.15" />
  <Tmax units="K" value="444.15" />
  </RelativeStaticPermittivity>
<AntoineVaporPressure name="Antoine" units="Pa">
  <eqno value="10" />
  <A value="20.985" />
  <B value="3507.8" />
  <C value="-76.505" />
  <Tmin units="K" value="375.01" />
  <Tmax units="K" value="538.92" />
  </AntoineVaporPressure>
<LiquidViscosityRPS name="Liquid viscosity (RPS)" units="Pa.s">
  <eqno value="13" />
  <A value="0.056572" />
  <B value="-0.032506" />
  <C value="0.000029737" />
  <Tmin units="K" value="240.05" />
  <Tmax units="K" value="494.16" />
  </LiquidViscosityRPS>
<COSTALDVolume name="COSTLD characteristic volume (V*)" units="m3/kmol" value="0.61922" />
<DiameterLJ name="Lennard Jones diameter" units="m" value="8.179973E-10" />
<EnergyLJ name="Lennard Jones energy" units="K" value="298.7822" />
<RacketParameter name="Rackett parameter" units="_" value="0.2503" />
<FullerVolume name="Fuller et al. diffusion volume" units="_" value="209.82" />
<MatthiasCopemanC2 name="Mathias-Copeman C2" units="_" value="-0.34943" />
<Parachor name="Parachor" units="kg0.25.m3/s0.5/kmol" value="0.0756" />
<SpecificGravity name="Specific gravity" units="_" value="0.732721" />
<Charge name="Charge" units="_" value="0" />
<CostaldAcentricFactor name="SRK acentric factor" units="_" value="0.4916" />
<WilsonVolume name="Wilson volume" units="m3/kmol" value="0.195806" />
<UniquacR name="UNIQUAC r" units="_" value="7.2" />
<UniquacQ name="UNIQUAC q" units="_" value="6.02" />
<ApiSrkS2 name="API-SRK s2" units="_" value="0.003324" />
<MatthiasCopemanC3 name="Mathias-Copeman C3" units="_" value="0.7327" />
<ChaoSeaderAcentricFactor name="Chao-Seader acentric factor" units="_" value="0.4869" />
<ChaoSeaderSolubilityParameter name="Chao-Seader solubility parameter" units="J0.5/m1.5" value="15791.26" />
<ChaoSeaderLiquidVolume name="Chao-Seader liquid volume" units="m3/kmol" value="0.196" />
<UnifacVLE name="UNIFAC">
  <group id="1" value="2" />
  <group id="2" value="8" />
  </UnifacVLE>
<UnifacLLE name="UNIFAC-LLE">
  <group id="1" value="2" />
  <group id="2" value="8" />
  </UnifacLLE>
<Asog name="ASOG">
  <group id="1" value="2" />
  <group id="2" value="8" />
  </Asog>
<GCmethod name="PPR78">
  <group id="1" value="2" />
  <group id="2" value="8" />
  </GCmethod>
<Umr name="UMR">
  <group id="1" value="2" />
  <group id="2" value="8" />
  </Umr>
<ModifiedUnifac name="Modified UNIFAC">
  <group id="1" value="2" />
  <group id="2" value="8" />
  </ModifiedUnifac>
<CAS name="CAS number" value="124-18-5" />
<Smiles name="SMILES" value="CCCCCCCCCC" />
</compound>

