<compound>
<LibraryIndex name="Index" value="64" />
<CompoundID name="Name" value="n-dodecane" />
<StructureFormula name="Structure" value="CH3(CH2)10CH3" />
<Family name="Family" value="1" />
<CriticalTemperature name="Critical temperature" units="K" value="658" />
<CriticalPressure name="Critical pressure" units="Pa" value="1820000" />
<CriticalVolume name="Critical volume" units="m3/kmol" value="0.754" />
<CriticalCompressibility name="Critical compressibility factor" units="_" value="0.251" />
<NormalBoilingPointTemperature name="Normal boiling point" units="K" value="489.48" />
<NormalMeltingPointTemperature name="Melting point" units="K" value="263.568" />
<TriplePointTemperature name="Triple point temperature" units="K" value="263.568" />
<TriplePointPressure name="Triple point pressure" units="Pa" value="0.615203" />
<MolecularWeight name="Molecular weight" units="kg/kmol" value="170.3348" />
<LiquidVolumeAtNormalBoilingPoint name="Liquid molar volume at normal boiling point" units="m3/kmol" value="0.22859" />
<AcentricityFactor name="Acentric factor" units="_" value="0.571" />
<RadiusOfGyration name="Radius of gyration" units="m" value="5.914E-10" />
<SolubilityParameter name="Solubility parameter" units="J0.5/m1.5" value="15930" />
<DipoleMoment name="Dipole moment" units="Coulomb.m" value="0" />
<VanDerWaalsVolume name="Van der Waals volume" units="m3/kmol" value="0.1296" />
<VanDerWaalsArea name="Van der Waals area" units="m2/kmol" value="1.774E+09" />
<HeatOfFormation name="IG heat of formation" units="J/kmol" value="-2.9072E+08" />
<GibbsEnergyOfFormation name="IG Gibbs energy of formation" units="J/kmol" value="4.981E+07" />
<AbsEntropy name="IG absolute entropy" units="J/kmol/K" value="624150" />
<HeatOfFusionAtMeltingPoint name="Heat of fusion at melting point" units="J/kmol" value="3.684E+07" />
<MatthiasCopemanC1 name="Mathias-Copeman C1" units="_" value="1.3026" />
<HeatOfCombustion name="Standard net heat of combustion LHV" units="J/kmol" value="-7.51368E+09" />
<SolidDensity name="Solid density" units="kmol/m3">
  <eqno value="2" />
  <A value="5.7375" />
  <B value="-0.0024301" />
  <Tmin units="K" value="105.43" />
  <Tmax units="K" value="263.57" />
  </SolidDensity>
<LiquidDensity name="Liquid density" units="kmol/m3">
  <eqno value="105" />
  <A value="0.30334" />
  <B value="0.23617" />
  <C value="658" />
  <D value="0.2706" />
  <Tmin units="K" value="263.15" />
  <Tmax units="K" value="658" />
  </LiquidDensity>
<VaporPressure name="Vapour pressure" units="Pa">
  <eqno value="101" />
  <A value="127.8877" />
  <B value="-11582.12" />
  <C value="-15.22541" />
  <D value="6.680034E-06" />
  <E value="2" />
  <Tmin units="K" value="263.57" />
  <Tmax units="K" value="658.15" />
  </VaporPressure>
<HeatOfVaporization name="Heat of vaporization" units="J/kmol">
  <eqno value="106" />
  <A value="9.812979E+07" />
  <B value="0.939672" />
  <C value="-0.0412509" />
  <D value="-0.949322" />
  <E value="0.501567" />
  <Tmin units="K" value="263.57" />
  <Tmax units="K" value="658" />
  </HeatOfVaporization>
<SolidHeatCapacityCp name="Solid heat capacity" units="J/kmol/K">
  <eqno value="100" />
  <A value="-40692" />
  <B value="2827.2" />
  <C value="-13.076" />
  <D value="0.027179" />
  <E value="0.0000013665" />
  <Tmin units="K" value="29.97" />
  <Tmax units="K" value="258.41" />
  </SolidHeatCapacityCp>
<LiquidHeatCapacityCp name="Liquid heat capacity" units="J/kmol/K">
  <eqno value="16" />
  <A value="203950" />
  <B value="627.31" />
  <C value="6.2796" />
  <D value="0.014676" />
  <E value="-0.0000079758" />
  <Tmin units="K" value="263.57" />
  <Tmax units="K" value="433.15" />
  </LiquidHeatCapacityCp>
<IdealGasHeatCapacityCp name="Ideal gas heat capacity" units="J/kmol/K">
  <eqno value="16" />
  <A value="193680" />
  <B value="-732.61" />
  <C value="13.902" />
  <D value="-0.00022284" />
  <E value="6.2257E-08" />
  <Tmin units="K" value="200" />
  <Tmax units="K" value="1500" />
  </IdealGasHeatCapacityCp>
<SecondVirialCoefficient name="Second virial coefficient" units="m3/kmol">
  <eqno value="104" />
  <A value="0.89899" />
  <B value="-1118.5" />
  <C value="-43.998" />
  <D value="-559660" />
  <E value="1526700" />
  <Tmin units="K" value="329" />
  <Tmax units="K" value="1500" />
  </SecondVirialCoefficient>
<LiquidViscosity name="Liquid viscosity" units="Pa.s">
  <eqno value="101" />
  <A value="-83.21108" />
  <B value="4238.311" />
  <C value="11.14639" />
  <D value="-0.0000124656" />
  <E value="2" />
  <Tmin units="K" value="262.15" />
  <Tmax units="K" value="658" />
  </LiquidViscosity>
<VaporViscosity name="Vapour viscosity" units="Pa.s">
  <eqno value="102" />
  <A value="5.4481E-08" />
  <B value="0.85223" />
  <C value="245.71" />
  <D value="-11928" />
  <Tmin units="K" value="263.57" />
  <Tmax units="K" value="1000" />
  </VaporViscosity>
<LiquidThermalConductivity name="Liquid thermal conductivity" units="W/m/K">
  <eqno value="16" />
  <A value="0.029364" />
  <B value="-108.04" />
  <C value="-0.7007" />
  <D value="-0.0040791" />
  <E value="6.1377E-07" />
  <Tmin units="K" value="263.44" />
  <Tmax units="K" value="489.47" />
  </LiquidThermalConductivity>
<VaporThermalConductivity name="Vapour thermal conductivity" units="W/m/K">
  <eqno value="102" />
  <A value="0.0000055504" />
  <B value="1.4726" />
  <C value="558.15" />
  <D value="3563.6" />
  <Tmin units="K" value="263.568" />
  <Tmax units="K" value="1000" />
  </VaporThermalConductivity>
<SurfaceTension name="Surface tension" units="N/m">
  <eqno value="16" />
  <A value="-0.0049404" />
  <B value="162.06" />
  <C value="-4.4354" />
  <D value="0.0037865" />
  <E value="-0.0000084256" />
  <Tmin units="K" value="263.57" />
  <Tmax units="K" value="658" />
  </SurfaceTension>
<RPPHeatCapacityCp name="Ideal gas heat capacity (RPP)" units="J/kmol/K">
  <eqno value="100" />
  <A value="143250" />
  <B value="-60.213" />
  <C value="2.6541" />
  <D value="-0.0035189" />
  <E value="0.0000014153" />
  <Tmin units="K" value="200" />
  <Tmax units="K" value="1000" />
  </RPPHeatCapacityCp>
<RelativeStaticPermittivity name="Relative static permittivity" units="_">
  <eqno value="120" />
  <A value="-1.4825" />
  <B value="-1000" />
  <C value="-6" />
  <Tmin units="K" value="274.15" />
  <Tmax units="K" value="444.15" />
  </RelativeStaticPermittivity>
<AntoineVaporPressure name="Antoine" units="Pa">
  <eqno value="10" />
  <A value="20.859" />
  <B value="3663.7" />
  <C value="-96.745" />
  <Tmin units="K" value="399.53" />
  <Tmax units="K" value="574.96" />
  </AntoineVaporPressure>
<LiquidViscosityRPS name="Liquid viscosity (RPS)" units="Pa.s">
  <eqno value="13" />
  <A value="0.30944" />
  <B value="-0.030368" />
  <C value="0.000024892" />
  <Tmin units="K" value="262.15" />
  <Tmax units="K" value="526.4" />
  </LiquidViscosityRPS>
<COSTALDVolume name="COSTLD characteristic volume (V*)" units="m3/kmol" value="0.75581" />
<DiameterLJ name="Lennard Jones diameter" units="m" value="8.921276E-10" />
<EnergyLJ name="Lennard Jones energy" units="K" value="296.4588" />
<RacketParameter name="Rackett parameter" units="_" value="0.2466" />
<FullerVolume name="Fuller et al. diffusion volume" units="_" value="250.86" />
<MatthiasCopemanC2 name="Mathias-Copeman C2" units="_" value="-0.00586" />
<Parachor name="Parachor" units="kg0.25.m3/s0.5/kmol" value="0.0894" />
<SpecificGravity name="Specific gravity" units="_" value="0.751145" />
<Charge name="Charge" units="_" value="0" />
<CostaldAcentricFactor name="SRK acentric factor" units="_" value="0.58069" />
<WilsonVolume name="Wilson volume" units="m3/kmol" value="0.228633" />
<UniquacR name="UNIQUAC r" units="_" value="8.5462" />
<UniquacQ name="UNIQUAC q" units="_" value="7.096" />
<ApiSrkS2 name="API-SRK s2" units="_" value="-0.001931" />
<MatthiasCopemanC3 name="Mathias-Copeman C3" units="_" value="0.18518" />
<ChaoSeaderAcentricFactor name="Chao-Seader acentric factor" units="_" value="0.561" />
<ChaoSeaderSolubilityParameter name="Chao-Seader solubility parameter" units="J0.5/m1.5" value="16036.72" />
<ChaoSeaderLiquidVolume name="Chao-Seader liquid volume" units="m3/kmol" value="0.2286" />
<UnifacVLE name="UNIFAC">
  <group id="1" value="2" />
  <group id="2" value="10" />
  </UnifacVLE>
<UnifacLLE name="UNIFAC-LLE">
  <group id="1" value="2" />
  <group id="2" value="10" />
  </UnifacLLE>
<Asog name="ASOG">
  <group id="1" value="2" />
  <group id="2" value="10" />
  </Asog>
<GCmethod name="PPR78">
  <group id="1" value="2" />
  <group id="2" value="10" />
  </GCmethod>
<Umr name="UMR">
  <group id="1" value="2" />
  <group id="2" value="10" />
  </Umr>
<ModifiedUnifac name="Modified UNIFAC">
  <group id="1" value="2" />
  <group id="2" value="10" />
  </ModifiedUnifac>
<CAS name="CAS number" value="112-40-3" />
<Smiles name="SMILES" value="CCCCCCCCCCCC" />
</compound>

