<compound>
<LibraryIndex name="Index" value="73" />
<CompoundID name="Name" value="n-eicosane" />
<StructureFormula name="Structure" value="CH3(CH2)18CH3" />
<Family name="Family" value="1" />
<CriticalTemperature name="Critical temperature" units="K" value="767" />
<CriticalPressure name="Critical pressure" units="Pa" value="1160000" />
<CriticalVolume name="Critical volume" units="m3/kmol" value="1.19" />
<CriticalCompressibility name="Critical compressibility factor" units="_" value="0.213" />
<NormalBoilingPointTemperature name="Normal boiling point" units="K" value="616.95" />
<NormalMeltingPointTemperature name="Melting point" units="K" value="309.58" />
<TriplePointTemperature name="Triple point temperature" units="K" value="309.58" />
<TriplePointPressure name="Triple point pressure" units="Pa" value="0.00925737" />
<MolecularWeight name="Molecular weight" units="kg/kmol" value="282.5475" />
<LiquidVolumeAtNormalBoilingPoint name="Liquid molar volume at normal boiling point" units="m3/kmol" value="0.360385" />
<AcentricityFactor name="Acentric factor" units="_" value="0.9065" />
<RadiusOfGyration name="Radius of gyration" units="m" value="8.364E-10" />
<SolubilityParameter name="Solubility parameter" units="J0.5/m1.5" value="16000" />
<DipoleMoment name="Dipole moment" units="Coulomb.m" value="0" />
<VanDerWaalsVolume name="Van der Waals volume" units="m3/kmol" value="0.2115" />
<VanDerWaalsArea name="Van der Waals area" units="m2/kmol" value="2.854E+09" />
<HeatOfFormation name="IG heat of formation" units="J/kmol" value="-4.5576E+08" />
<GibbsEnergyOfFormation name="IG Gibbs energy of formation" units="J/kmol" value="1.157E+08" />
<AbsEntropy name="IG absolute entropy" units="J/kmol/K" value="934120" />
<HeatOfFusionAtMeltingPoint name="Heat of fusion at melting point" units="J/kmol" value="7.03E+07" />
<MatthiasCopemanC1 name="Mathias-Copeman C1" units="_" value="1.758045" />
<HeatOfCombustion name="Standard net heat of combustion LHV" units="J/kmol" value="-1.239199E+10" />
<SolidDensity name="Solid density" units="kmol/m3">
  <eqno value="100" />
  <A value="4.0147" />
  <B value="-0.0026629" />
  <C value="0" />
  <D value="0" />
  <E value="0" />
  <Tmin units="K" value="273.15" />
  <Tmax units="K" value="305.15" />
  </SolidDensity>
<LiquidDensity name="Liquid density" units="kmol/m3">
  <eqno value="105" />
  <A value="0.18166" />
  <B value="0.23351" />
  <C value="768" />
  <D value="0.28571" />
  <Tmin units="K" value="309.58" />
  <Tmax units="K" value="768" />
  </LiquidDensity>
<VaporPressure name="Vapour pressure" units="Pa">
  <eqno value="101" />
  <A value="164.6909" />
  <B value="-17503.89" />
  <C value="-19.74205" />
  <D value="5.399206E-06" />
  <E value="2" />
  <Tmin units="K" value="309.58" />
  <Tmax units="K" value="768" />
  </VaporPressure>
<HeatOfVaporization name="Heat of vaporization" units="J/kmol">
  <eqno value="106" />
  <A value="1.286E+08" />
  <B value="0.50351" />
  <C value="0.32986" />
  <D value="-0.42184" />
  <E value="0" />
  <Tmin units="K" value="309.58" />
  <Tmax units="K" value="768" />
  </HeatOfVaporization>
<SolidHeatCapacityCp name="Solid heat capacity" units="J/kmol/K">
  <eqno value="100" />
  <A value="-5403.1" />
  <B value="3223.5" />
  <C value="-13.079" />
  <D value="0.030371" />
  <E value="0" />
  <Tmin units="K" value="93.6" />
  <Tmax units="K" value="267.7" />
  </SolidHeatCapacityCp>
<LiquidHeatCapacityCp name="Liquid heat capacity" units="J/kmol/K">
  <eqno value="100" />
  <A value="352720" />
  <B value="807.32" />
  <C value="0.2122" />
  <D value="0" />
  <E value="0" />
  <Tmin units="K" value="309.58" />
  <Tmax units="K" value="616.93" />
  </LiquidHeatCapacityCp>
<IdealGasHeatCapacityCp name="Ideal gas heat capacity" units="J/kmol/K">
  <eqno value="16" />
  <A value="275645.1" />
  <B value="-603.1483" />
  <C value="14.16387" />
  <D value="0" />
  <E value="0" />
  <Tmin units="K" value="200" />
  <Tmax units="K" value="1500" />
  </IdealGasHeatCapacityCp>
<SecondVirialCoefficient name="Second virial coefficient" units="m3/kmol">
  <eqno value="104" />
  <A value="0.79988" />
  <B value="-668.4507" />
  <C value="-770.312" />
  <D value="-904093.1" />
  <E value="1246935" />
  <Tmin units="K" value="384" />
  <Tmax units="K" value="1500" />
  </SecondVirialCoefficient>
<LiquidViscosity name="Liquid viscosity" units="Pa.s">
  <eqno value="101" />
  <A value="-10.5557" />
  <B value="1830.385" />
  <C value="-0.148602" />
  <D value="-7.471032E-06" />
  <E value="-7.49069E-06" />
  <Tmin units="K" value="309.58" />
  <Tmax units="K" value="616.93" />
  </LiquidViscosity>
<VaporViscosity name="Vapour viscosity" units="Pa.s">
  <eqno value="102" />
  <A value="2.9236E-07" />
  <B value="0.62458" />
  <C value="702.84" />
  <D value="0" />
  <Tmin units="K" value="309.58" />
  <Tmax units="K" value="1000" />
  </VaporViscosity>
<LiquidThermalConductivity name="Liquid thermal conductivity" units="W/m/K">
  <eqno value="100" />
  <A value="0.2178" />
  <B value="-0.0002233" />
  <C value="0" />
  <D value="0" />
  <E value="0" />
  <Tmin units="K" value="309.58" />
  <Tmax units="K" value="616.93" />
  </LiquidThermalConductivity>
<VaporThermalConductivity name="Vapour thermal conductivity" units="W/m/K">
  <eqno value="102" />
  <A value="-375.32" />
  <B value="1.0708" />
  <C value="-8.7836E+09" />
  <D value="0" />
  <Tmin units="K" value="274" />
  <Tmax units="K" value="1000" />
  </VaporThermalConductivity>
<SurfaceTension name="Surface tension" units="N/m">
  <eqno value="106" />
  <A value="0.058226" />
  <B value="1.4495" />
  <C value="0" />
  <D value="0" />
  <E value="0" />
  <Tmin units="K" value="309.58" />
  <Tmax units="K" value="768" />
  </SurfaceTension>
<RPPHeatCapacityCp name="Ideal gas heat capacity (RPP)" units="J/kmol/K">
  <eqno value="4" />
  <A value="-1502.245" />
  <B value="1850.479" />
  <C value="-1.010299" />
  <D value="0.000213775" />
  <Tmin units="K" value="200" />
  <Tmax units="K" value="1500" />
  </RPPHeatCapacityCp>
<AntoineVaporPressure name="Antoine" units="Pa">
  <eqno value="10" />
  <A value="28.5" />
  <B value="9800" />
  <C value="-10" />
  <Tmin units="K" value="273.15" />
  <Tmax units="K" value="500" />
  </AntoineVaporPressure>
<MatthiasCopemanC2 name="Mathias-Copeman C2" units="_" value="0" />
<CostaldAcentricFactor name="SRK acentric factor" units="_" value="0.9065" />
<WilsonVolume name="Wilson volume" units="m3/kmol" value="0.360385" />
<UniquacR name="UNIQUAC r" units="_" value="13.9414" />
<UniquacQ name="UNIQUAC q" units="_" value="11.416" />
<MatthiasCopemanC3 name="Mathias-Copeman C3" units="_" value="0" />
<ChaoSeaderAcentricFactor name="Chao-Seader acentric factor" units="_" value="0.9065" />
<ChaoSeaderSolubilityParameter name="Chao-Seader solubility parameter" units="J0.5/m1.5" value="16000" />
<ChaoSeaderLiquidVolume name="Chao-Seader liquid volume" units="m3/kmol" value="0.360385" />
<UnifacVLE name="UNIFAC">
  <group id="1" value="2" />
  <group id="2" value="18" />
  </UnifacVLE>
<UnifacLLE name="UNIFAC-LLE">
  <group id="1" value="2" />
  <group id="2" value="18" />
  </UnifacLLE>
<Asog name="ASOG">
  <group id="1" value="2" />
  <group id="2" value="18" />
  </Asog>
<GCmethod name="PPR78">
  <group id="1" value="2" />
  <group id="2" value="18" />
  </GCmethod>
<Umr name="UMR">
  <group id="1" value="2" />
  <group id="2" value="18" />
  </Umr>
<ModifiedUnifac name="Modified UNIFAC">
  <group id="1" value="2" />
  <group id="2" value="18" />
  </ModifiedUnifac>
<CAS name="CAS number" value="112-95-8" />
<Smiles name="SMILES" value="CCCCCCCCCCCCCCCCCCCC" />
</compound>

