<compound>
<LibraryIndex name="Index" value="1807" />
<CompoundID name="Name" value="n-hexyl mercaptan" />
<StructureFormula name="Structure" value="CH3(CH2)5SH" />
<Family name="Family" value="41" />
<CriticalTemperature name="Critical temperature" units="K" value="622" />
<CriticalPressure name="Critical pressure" units="Pa" value="3025000" />
<CriticalVolume name="Critical volume" units="m3/kmol" value="0.412" />
<CriticalCompressibility name="Critical compressibility factor" units="_" value="0.245" />
<NormalBoilingPointTemperature name="Normal boiling point" units="K" value="424.15" />
<NormalMeltingPointTemperature name="Melting point" units="K" value="192.15" />
<TriplePointTemperature name="Triple point temperature" units="K" value="192.62" />
<TriplePointPressure name="Triple point pressure" units="Pa" value="0.0130959" />
<MolecularWeight name="Molecular weight" units="kg/kmol" value="118.2404" />
<LiquidVolumeAtNormalBoilingPoint name="Liquid molar volume at normal boiling point" units="m3/kmol" value="0.141006" />
<AcentricityFactor name="Acentric factor" units="_" value="0.369" />
<RadiusOfGyration name="Radius of gyration" units="m" value="4.252E-10" />
<SolubilityParameter name="Solubility parameter" units="J0.5/m1.5" value="17450" />
<DipoleMoment name="Dipole moment" units="Coulomb.m" value="5.17E-30" />
<VanDerWaalsVolume name="Van der Waals volume" units="m3/kmol" value="0.07963" />
<VanDerWaalsArea name="Van der Waals area" units="m2/kmol" value="1.12E+09" />
<HeatOfFormation name="IG heat of formation" units="J/kmol" value="-1.292E+08" />
<GibbsEnergyOfFormation name="IG Gibbs energy of formation" units="J/kmol" value="2.77E+07" />
<AbsEntropy name="IG absolute entropy" units="J/kmol/K" value="454600" />
<HeatOfFusionAtMeltingPoint name="Heat of fusion at melting point" units="J/kmol" value="1.801E+07" />
<MatthiasCopemanC1 name="Mathias-Copeman C1" units="_" value="1.03043" />
<HeatOfCombustion name="Standard net heat of combustion LHV" units="J/kmol" value="-4.176E+09" />
<SolidDensity name="Solid density" units="kmol/m3">
  <eqno value="2" />
  <A value="9.9499" />
  <B value="-0.0064569" />
  <C value="0" />
  <D value="0" />
  <E value="0" />
  <Tmin units="K" value="77.05" />
  <Tmax units="K" value="192.62" />
  </SolidDensity>
<LiquidDensity name="Liquid density" units="kmol/m3">
  <eqno value="105" />
  <A value="0.60827" />
  <B value="0.26212" />
  <C value="623.01" />
  <D value="0.27785" />
  <Tmin units="K" value="192.62" />
  <Tmax units="K" value="623" />
  </LiquidDensity>
<VaporPressure name="Vapour pressure" units="Pa">
  <eqno value="101" />
  <A value="102.0208" />
  <B value="-8530.272" />
  <C value="-11.91139" />
  <D value="8.521739E-06" />
  <E value="2" />
  <Tmin units="K" value="192.62" />
  <Tmax units="K" value="623" />
  </VaporPressure>
<HeatOfVaporization name="Heat of vaporization" units="J/kmol">
  <eqno value="106" />
  <A value="6.053718E+07" />
  <B value="0.532372" />
  <C value="-0.222059" />
  <D value="0.0696209" />
  <E value="-0.00101028" />
  <Tmin units="K" value="192.62" />
  <Tmax units="K" value="600.35" />
  </HeatOfVaporization>
<SolidHeatCapacityCp name="Solid heat capacity" units="J/kmol/K">
  <eqno value="100" />
  <A value="-19026" />
  <B value="1622.7" />
  <C value="-5.5711" />
  <D value="-0.0016101" />
  <E value="0.00005357" />
  <Tmin units="K" value="16.73" />
  <Tmax units="K" value="186.33" />
  </SolidHeatCapacityCp>
<LiquidHeatCapacityCp name="Liquid heat capacity" units="J/kmol/K">
  <eqno value="16" />
  <A value="168110" />
  <B value="243.92" />
  <C value="7.741" />
  <D value="0.0099925" />
  <E value="-0.0000054522" />
  <Tmin units="K" value="192.62" />
  <Tmax units="K" value="510" />
  </LiquidHeatCapacityCp>
<IdealGasHeatCapacityCp name="Ideal gas heat capacity" units="J/kmol/K">
  <eqno value="16" />
  <A value="116170" />
  <B value="-711.75" />
  <C value="13.18" />
  <D value="-0.000044297" />
  <E value="1.0562E-09" />
  <Tmin units="K" value="200" />
  <Tmax units="K" value="1500" />
  </IdealGasHeatCapacityCp>
<SecondVirialCoefficient name="Second virial coefficient" units="m3/kmol">
  <eqno value="104" />
  <A value="0.28791" />
  <B value="-359.98" />
  <C value="-70.803" />
  <D value="-33240" />
  <E value="54069" />
  <Tmin units="K" value="311.5" />
  <Tmax units="K" value="1991.5" />
  </SecondVirialCoefficient>
<LiquidViscosity name="Liquid viscosity" units="Pa.s">
  <eqno value="101" />
  <A value="-35.723" />
  <B value="1823.3" />
  <C value="4.0853" />
  <D value="-0.0000098564" />
  <E value="2" />
  <Tmin units="K" value="192.62" />
  <Tmax units="K" value="425.81" />
  </LiquidViscosity>
<VaporViscosity name="Vapour viscosity" units="Pa.s">
  <eqno value="102" />
  <A value="6.7616E-08" />
  <B value="0.85134" />
  <C value="101.57" />
  <D value="-4277.1" />
  <Tmin units="K" value="192.62" />
  <Tmax units="K" value="1000" />
  </VaporViscosity>
<LiquidThermalConductivity name="Liquid thermal conductivity" units="W/m/K">
  <eqno value="16" />
  <A value="-0.076932" />
  <B value="5.5076" />
  <C value="-1.3601" />
  <D value="-0.00033003" />
  <E value="-0.000001155" />
  <Tmin units="K" value="192.62" />
  <Tmax units="K" value="425.81" />
  </LiquidThermalConductivity>
<VaporThermalConductivity name="Vapour thermal conductivity" units="W/m/K">
  <eqno value="102" />
  <A value="0.090806" />
  <B value="0.27994" />
  <C value="4707" />
  <D value="1982000" />
  <Tmin units="K" value="192.62" />
  <Tmax units="K" value="1000" />
  </VaporThermalConductivity>
<SurfaceTension name="Surface tension" units="N/m">
  <eqno value="16" />
  <A value="-0.043732" />
  <B value="-13.608" />
  <C value="-2.1183" />
  <D value="-0.001643" />
  <E value="5.7805E-08" />
  <Tmin units="K" value="192.62" />
  <Tmax units="K" value="600.35" />
  </SurfaceTension>
<RPPHeatCapacityCp name="Ideal gas heat capacity (RPP)" units="J/kmol/K">
  <eqno value="4" />
  <A value="23098" />
  <B value="542.53" />
  <C value="-0.23254" />
  <D value="0.000032568" />
  <Tmin units="K" value="200" />
  <Tmax units="K" value="1500" />
  </RPPHeatCapacityCp>
<AntoineVaporPressure name="Antoine" units="Pa">
  <eqno value="10" />
  <A value="20.988" />
  <B value="3419.8" />
  <C value="-64.357" />
  <Tmin units="K" value="373.83" />
  <Tmax units="K" value="555.05" />
  </AntoineVaporPressure>
<LiquidViscosityRPS name="Liquid viscosity (RPS)" units="Pa.s">
  <eqno value="12" />
  <A value="-3.0571" />
  <B value="-0.013495" />
  <Tmin units="K" value="192.62" />
  <Tmax units="K" value="425.81" />
  </LiquidViscosityRPS>
<COSTALDVolume name="COSTLD characteristic volume (V*)" units="m3/kmol" value="0.432645" />
<DiameterLJ name="Lennard Jones diameter" units="m" value="7.508354E-10" />
<EnergyLJ name="Lennard Jones energy" units="K" value="256.863" />
<RacketParameter name="Rackett parameter" units="_" value="0.245" />
<FullerVolume name="Fuller et al. diffusion volume" units="_" value="137.185" />
<MatthiasCopemanC2 name="Mathias-Copeman C2" units="_" value="0" />
<Parachor name="Parachor" units="kg0.25.m3/s0.5/kmol" value="0.0570385" />
<SpecificGravity name="Specific gravity" units="_" value="0.84617" />
<Charge name="Charge" units="_" value="0" />
<CostaldAcentricFactor name="SRK acentric factor" units="_" value="0.369" />
<WilsonVolume name="Wilson volume" units="m3/kmol" value="0.141006" />
<UniquacR name="UNIQUAC r" units="_" value="5.2497" />
<UniquacQ name="UNIQUAC q" units="_" value="4.376" />
<MatthiasCopemanC3 name="Mathias-Copeman C3" units="_" value="0" />
<ChaoSeaderAcentricFactor name="Chao-Seader acentric factor" units="_" value="0.369" />
<ChaoSeaderSolubilityParameter name="Chao-Seader solubility parameter" units="J0.5/m1.5" value="17450" />
<ChaoSeaderLiquidVolume name="Chao-Seader liquid volume" units="m3/kmol" value="0.141006" />
<UnifacVLE name="UNIFAC">
  <group id="61" value="1" />
  <group id="1" value="1" />
  <group id="2" value="4" />
  </UnifacVLE>
<Asog name="ASOG">
  <group id="1" value="1" />
  <group id="2" value="5" />
  <group id="55" value="1" />
  </Asog>
<GCmethod name="PPR78">
  <group id="1" value="1" />
  <group id="2" value="5" />
  <group id="15" value="1" />
  </GCmethod>
<Umr name="UMR">
  <group id="61" value="1" />
  <group id="1" value="1" />
  <group id="2" value="4" />
  </Umr>
<ModifiedUnifac name="Modified UNIFAC">
  <group id="1" value="1" />
  <group id="2" value="4" />
  <group id="60" value="1" />
  </ModifiedUnifac>
<CAS name="CAS number" value="111-31-9" />
<Smiles name="SMILES" value="CCCCCCS" />
</compound>

