<compound>
<LibraryIndex name="Index" value="68" />
<CompoundID name="Name" value="n-hexadecane" />
<StructureFormula name="Structure" value="CH3(CH2)14CH3" />
<Family name="Family" value="1" />
<CriticalTemperature name="Critical temperature" units="K" value="723" />
<CriticalPressure name="Critical pressure" units="Pa" value="1400000" />
<CriticalVolume name="Critical volume" units="m3/kmol" value="1.034" />
<CriticalCompressibility name="Critical compressibility factor" units="_" value="0.241" />
<NormalBoilingPointTemperature name="Normal boiling point" units="K" value="559.98" />
<NormalMeltingPointTemperature name="Melting point" units="K" value="291.308" />
<TriplePointTemperature name="Triple point temperature" units="K" value="291.308" />
<TriplePointPressure name="Triple point pressure" units="Pa" value="0.0922432" />
<MolecularWeight name="Molecular weight" units="kg/kmol" value="226.4412" />
<LiquidVolumeAtNormalBoilingPoint name="Liquid molar volume at normal boiling point" units="m3/kmol" value="0.29411" />
<AcentricityFactor name="Acentric factor" units="_" value="0.726" />
<RadiusOfGyration name="Radius of gyration" units="m" value="7.063E-10" />
<SolubilityParameter name="Solubility parameter" units="J0.5/m1.5" value="16190" />
<DipoleMoment name="Dipole moment" units="Coulomb.m" value="0" />
<VanDerWaalsVolume name="Van der Waals volume" units="m3/kmol" value="0.1706" />
<VanDerWaalsArea name="Van der Waals area" units="m2/kmol" value="2.314E+09" />
<HeatOfFormation name="IG heat of formation" units="J/kmol" value="-3.7417E+08" />
<GibbsEnergyOfFormation name="IG Gibbs energy of formation" units="J/kmol" value="8.216E+07" />
<AbsEntropy name="IG absolute entropy" units="J/kmol/K" value="781020" />
<HeatOfFusionAtMeltingPoint name="Heat of fusion at melting point" units="J/kmol" value="5.3358E+07" />
<MatthiasCopemanC1 name="Mathias-Copeman C1" units="_" value="1.5924" />
<HeatOfCombustion name="Standard net heat of combustion LHV" units="J/kmol" value="-9.95145E+09" />
<SolidDensity name="Solid density" units="kmol/m3">
  <eqno value="2" />
  <A value="5.1175" />
  <B value="-0.0038943" />
  <Tmin units="K" value="273.15" />
  <Tmax units="K" value="291.32" />
  </SolidDensity>
<LiquidDensity name="Liquid density" units="kmol/m3">
  <eqno value="105" />
  <A value="0.23237" />
  <B value="0.23642" />
  <C value="723" />
  <D value="0.28403" />
  <Tmin units="K" value="291.31" />
  <Tmax units="K" value="723" />
  </LiquidDensity>
<VaporPressure name="Vapour pressure" units="Pa">
  <eqno value="101" />
  <A value="138.0173" />
  <B value="-14151.1" />
  <C value="-16.24379" />
  <D value="5.027608E-06" />
  <E value="2" />
  <Tmin units="K" value="288.95" />
  <Tmax units="K" value="723" />
  </VaporPressure>
<HeatOfVaporization name="Heat of vaporization" units="J/kmol">
  <eqno value="106" />
  <A value="1.2775E+08" />
  <B value="0.92612" />
  <C value="0.52583" />
  <D value="-2.1415" />
  <E value="1.2039" />
  <Tmin units="K" value="291.31" />
  <Tmax units="K" value="723" />
  </HeatOfVaporization>
<SolidHeatCapacityCp name="Solid heat capacity" units="J/kmol/K">
  <eqno value="100" />
  <A value="-53303" />
  <B value="3589.2" />
  <C value="-16.544" />
  <D value="0.037386" />
  <E value="-0.000012242" />
  <Tmin units="K" value="20" />
  <Tmax units="K" value="291.33" />
  </SolidHeatCapacityCp>
<LiquidHeatCapacityCp name="Liquid heat capacity" units="J/kmol/K">
  <eqno value="16" />
  <A value="387360" />
  <B value="-123.61" />
  <C value="10.738" />
  <D value="0.005" />
  <E value="-0.0000019617" />
  <Tmin units="K" value="291.31" />
  <Tmax units="K" value="560.01" />
  </LiquidHeatCapacityCp>
<IdealGasHeatCapacityCp name="Ideal gas heat capacity" units="J/kmol/K">
  <eqno value="16" />
  <A value="232700" />
  <B value="-655.34" />
  <C value="14.079" />
  <D value="-0.0001451" />
  <E value="4.6597E-08" />
  <Tmin units="K" value="200" />
  <Tmax units="K" value="1500" />
  </IdealGasHeatCapacityCp>
<SecondVirialCoefficient name="Second virial coefficient" units="m3/kmol">
  <eqno value="104" />
  <A value="0.50464" />
  <B value="-439.04" />
  <C value="-445.03" />
  <D value="-345290" />
  <E value="480120" />
  <Tmin units="K" value="361" />
  <Tmax units="K" value="1981" />
  </SecondVirialCoefficient>
<LiquidViscosity name="Liquid viscosity" units="Pa.s">
  <eqno value="101" />
  <A value="-84.70059" />
  <B value="4841.907" />
  <C value="11.15158" />
  <D value="-9.617336E-06" />
  <E value="2" />
  <Tmin units="K" value="278.15" />
  <Tmax units="K" value="723" />
  </LiquidViscosity>
<VaporViscosity name="Vapour viscosity" units="Pa.s">
  <eqno value="102" />
  <A value="1.3203E-07" />
  <B value="0.72722" />
  <C value="424.3" />
  <D value="4562.7" />
  <Tmin units="K" value="273.15" />
  <Tmax units="K" value="1000" />
  </VaporViscosity>
<LiquidThermalConductivity name="Liquid thermal conductivity" units="W/m/K">
  <eqno value="16" />
  <A value="0.006807" />
  <B value="-152.97" />
  <C value="-0.44096" />
  <D value="-0.0038892" />
  <E value="0.0000012245" />
  <Tmin units="K" value="291.31" />
  <Tmax units="K" value="560.01" />
  </LiquidThermalConductivity>
<VaporThermalConductivity name="Vapour thermal conductivity" units="W/m/K">
  <eqno value="102" />
  <A value="0.0000035961" />
  <B value="1.5118" />
  <C value="510.88" />
  <D value="23814" />
  <Tmin units="K" value="291.308" />
  <Tmax units="K" value="1000" />
  </VaporThermalConductivity>
<SurfaceTension name="Surface tension" units="N/m">
  <eqno value="16" />
  <A value="-0.0036644" />
  <B value="220.16" />
  <C value="-4.8209" />
  <D value="0.0045419" />
  <E value="-0.0000084745" />
  <Tmin units="K" value="291.31" />
  <Tmax units="K" value="723" />
  </SurfaceTension>
<RPPHeatCapacityCp name="Ideal gas heat capacity (RPP)" units="J/kmol/K">
  <eqno value="100" />
  <A value="417.3407" />
  <B value="1457.374" />
  <C value="-0.708733" />
  <D value="0.0000535634" />
  <E value="4.151662E-08" />
  <Tmin units="K" value="200" />
  <Tmax units="K" value="1000" />
  </RPPHeatCapacityCp>
<AntoineVaporPressure name="Antoine" units="Pa">
  <eqno value="10" />
  <A value="20.891" />
  <B value="4049.7" />
  <C value="-127.22" />
  <Tmin units="K" value="438.29" />
  <Tmax units="K" value="632.12" />
  </AntoineVaporPressure>
<LiquidViscosityRPS name="Liquid viscosity (RPS)" units="Pa.s">
  <eqno value="13" />
  <A value="1.725" />
  <B value="-0.033627" />
  <C value="0.000027668" />
  <Tmin units="K" value="278.15" />
  <Tmax units="K" value="564.15" />
  </LiquidViscosityRPS>
<COSTALDVolume name="COSTLD characteristic volume (V*)" units="m3/kmol" value="1.067071" />
<DiameterLJ name="Lennard Jones diameter" units="m" value="1.040714E-09" />
<EnergyLJ name="Lennard Jones energy" units="K" value="281.3927" />
<RacketParameter name="Rackett parameter" units="_" value="0.226854" />
<FullerVolume name="Fuller et al. diffusion volume" units="_" value="332.94" />
<MatthiasCopemanC2 name="Mathias-Copeman C2" units="_" value="-0.64299" />
<Parachor name="Parachor" units="kg0.25.m3/s0.5/kmol" value="0.116" />
<SpecificGravity name="Specific gravity" units="_" value="0.775481" />
<Charge name="Charge" units="_" value="0" />
<CostaldAcentricFactor name="SRK acentric factor" units="_" value="0.74714" />
<WilsonVolume name="Wilson volume" units="m3/kmol" value="0.294064" />
<UniquacR name="UNIQUAC r" units="_" value="11.24" />
<UniquacQ name="UNIQUAC q" units="_" value="9.26" />
<ApiSrkS2 name="API-SRK s2" units="_" value="-0.002741" />
<MatthiasCopemanC3 name="Mathias-Copeman C3" units="_" value="1.5125" />
<ChaoSeaderAcentricFactor name="Chao-Seader acentric factor" units="_" value="0.7078" />
<ChaoSeaderSolubilityParameter name="Chao-Seader solubility parameter" units="J0.5/m1.5" value="16343.54" />
<ChaoSeaderLiquidVolume name="Chao-Seader liquid volume" units="m3/kmol" value="0.2941" />
<UnifacVLE name="UNIFAC">
  <group id="1" value="2" />
  <group id="2" value="14" />
  </UnifacVLE>
<UnifacLLE name="UNIFAC-LLE">
  <group id="1" value="2" />
  <group id="2" value="14" />
  </UnifacLLE>
<Asog name="ASOG">
  <group id="1" value="2" />
  <group id="2" value="14" />
  </Asog>
<GCmethod name="PPR78">
  <group id="1" value="2" />
  <group id="2" value="14" />
  </GCmethod>
<Umr name="UMR">
  <group id="1" value="2" />
  <group id="2" value="14" />
  </Umr>
<ModifiedUnifac name="Modified UNIFAC">
  <group id="1" value="2" />
  <group id="2" value="14" />
  </ModifiedUnifac>
<CAS name="CAS number" value="544-76-3" />
<Smiles name="SMILES" value="CCCCCCCCCCCCCCCC" />
</compound>

