<compound>
<LibraryIndex name="Index" value="81" />
<CompoundID name="Name" value="n-octacosane" />
<StructureFormula name="Structure" value="CH3(CH2)26CH3" />
<Family name="Family" value="1" />
<CriticalTemperature name="Critical temperature" units="K" value="832" />
<CriticalPressure name="Critical pressure" units="Pa" value="850000" />
<CriticalVolume name="Critical volume" units="m3/kmol" value="1.63" />
<CriticalCompressibility name="Critical compressibility factor" units="_" value="0.200285" />
<NormalBoilingPointTemperature name="Normal boiling point" units="K" value="704.75" />
<NormalMeltingPointTemperature name="Melting point" units="K" value="334.55" />
<TriplePointTemperature name="Triple point temperature" units="K" value="334.35" />
<TriplePointPressure name="Triple point pressure" units="Pa" value="0.000104457" />
<MolecularWeight name="Molecular weight" units="kg/kmol" value="394.7601" />
<LiquidVolumeAtNormalBoilingPoint name="Liquid molar volume at normal boiling point" units="m3/kmol" value="0.492645" />
<AcentricityFactor name="Acentric factor" units="_" value="1.23752" />
<RadiusOfGyration name="Radius of gyration" units="m" value="1.033E-09" />
<SolubilityParameter name="Solubility parameter" units="J0.5/m1.5" value="15700" />
<DipoleMoment name="Dipole moment" units="Coulomb.m" value="0" />
<VanDerWaalsVolume name="Van der Waals volume" units="m3/kmol" value="0.2933" />
<VanDerWaalsArea name="Van der Waals area" units="m2/kmol" value="3.934E+09" />
<HeatOfFormation name="IG heat of formation" units="J/kmol" value="-6.228E+08" />
<GibbsEnergyOfFormation name="IG Gibbs energy of formation" units="J/kmol" value="1.799E+08" />
<AbsEntropy name="IG absolute entropy" units="J/kmol/K" value="1255000" />
<HeatOfFusionAtMeltingPoint name="Heat of fusion at melting point" units="J/kmol" value="6.4643E+07" />
<MatthiasCopemanC1 name="Mathias-Copeman C1" units="_" value="2.06" />
<HeatOfCombustion name="Standard net heat of combustion LHV" units="J/kmol" value="-1.722E+10" />
<SolidDensity name="Solid density" units="kmol/m3">
  <eqno value="100" />
  <A value="2.5213" />
  <B value="-0.00094263" />
  <C value="0" />
  <D value="0" />
  <E value="0" />
  <Tmin units="K" value="133.74" />
  <Tmax units="K" value="334.35" />
  </SolidDensity>
<LiquidDensity name="Liquid density" units="kmol/m3">
  <eqno value="105" />
  <A value="0.0073167" />
  <B value="0.055448" />
  <C value="843" />
  <D value="0.13236" />
  <Tmin units="K" value="273.15" />
  <Tmax units="K" value="832" />
  </LiquidDensity>
<VaporPressure name="Vapour pressure" units="Pa">
  <eqno value="101" />
  <A value="196.5874" />
  <B value="-22285.21" />
  <C value="-23.91336" />
  <D value="7.155924E-06" />
  <E value="2" />
  <Tmin units="K" value="334.35" />
  <Tmax units="K" value="832" />
  </VaporPressure>
<HeatOfVaporization name="Heat of vaporization" units="J/kmol">
  <eqno value="106" />
  <A value="2.0593E+08" />
  <B value="0.90796" />
  <C value="0.4061" />
  <D value="-1.298" />
  <E value="0.44283" />
  <Tmin units="K" value="334.35" />
  <Tmax units="K" value="832" />
  </HeatOfVaporization>
<SolidHeatCapacityCp name="Solid heat capacity" units="J/kmol/K">
  <eqno value="100" />
  <A value="-84888" />
  <B value="5947.6" />
  <C value="-27.952" />
  <D value="0.062726" />
  <E value="-0.0000046784" />
  <Tmin units="K" value="80" />
  <Tmax units="K" value="250" />
  </SolidHeatCapacityCp>
<LiquidHeatCapacityCp name="Liquid heat capacity" units="J/kmol/K">
  <eqno value="16" />
  <A value="494250" />
  <B value="-131.76" />
  <C value="12.406" />
  <D value="0.0033619" />
  <E value="-0.0000018387" />
  <Tmin units="K" value="334.35" />
  <Tmax units="K" value="704.75" />
  </LiquidHeatCapacityCp>
<IdealGasHeatCapacityCp name="Ideal gas heat capacity" units="J/kmol/K">
  <eqno value="16" />
  <A value="335140" />
  <B value="-505.51" />
  <C value="14.268" />
  <D value="0.00027376" />
  <E value="-9.6008E-08" />
  <Tmin units="K" value="273" />
  <Tmax units="K" value="1500" />
  </IdealGasHeatCapacityCp>
<SecondVirialCoefficient name="Second virial coefficient" units="m3/kmol">
  <eqno value="104" />
  <A value="1.7412" />
  <B value="-1526.5" />
  <C value="-1143.7" />
  <D value="-7580800" />
  <E value="1.9977E+07" />
  <Tmin units="K" value="416" />
  <Tmax units="K" value="1500" />
  </SecondVirialCoefficient>
<LiquidViscosity name="Liquid viscosity" units="Pa.s">
  <eqno value="101" />
  <A value="-110.67" />
  <B value="6750.2" />
  <C value="14.886" />
  <D value="-0.000010312" />
  <E value="2" />
  <Tmin units="K" value="334.35" />
  <Tmax units="K" value="832" />
  </LiquidViscosity>
<VaporViscosity name="Vapour viscosity" units="Pa.s">
  <eqno value="102" />
  <A value="0.0000003028" />
  <B value="0.58316" />
  <C value="487.28" />
  <D value="64252" />
  <Tmin units="K" value="334.35" />
  <Tmax units="K" value="1000" />
  </VaporViscosity>
<LiquidThermalConductivity name="Liquid thermal conductivity" units="W/m/K">
  <eqno value="16" />
  <A value="-0.0095167" />
  <B value="-82.828" />
  <C value="-0.8204" />
  <D value="-0.0023614" />
  <E value="5.0131E-07" />
  <Tmin units="K" value="334.35" />
  <Tmax units="K" value="704.75" />
  </LiquidThermalConductivity>
<VaporThermalConductivity name="Vapour thermal conductivity" units="W/m/K">
  <eqno value="102" />
  <A value="-190.77" />
  <B value="1.0711" />
  <C value="-5.355E+09" />
  <D value="-7.036E+10" />
  <Tmin units="K" value="334.35" />
  <Tmax units="K" value="1000" />
  </VaporThermalConductivity>
<SurfaceTension name="Surface tension" units="N/m">
  <eqno value="16" />
  <A value="-0.063455" />
  <B value="-39.315" />
  <C value="-1.8285" />
  <D value="-0.0015529" />
  <E value="5.9113E-07" />
  <Tmin units="K" value="334.35" />
  <Tmax units="K" value="832" />
  </SurfaceTension>
<RPPHeatCapacityCp name="Ideal gas heat capacity (RPP)" units="J/kmol/K">
  <eqno value="4" />
  <A value="-11108" />
  <B value="2607.2" />
  <C value="-1.4263" />
  <D value="0.00029964" />
  <Tmin units="K" value="300" />
  <Tmax units="K" value="1500" />
  </RPPHeatCapacityCp>
<AntoineVaporPressure name="Antoine" units="Pa">
  <eqno value="10" />
  <A value="22.188" />
  <B value="5872" />
  <C value="-153.33" />
  <Tmin units="K" value="508.11" />
  <Tmax units="K" value="753.42" />
  </AntoineVaporPressure>
<LiquidViscosityRPS name="Liquid viscosity (RPS)" units="Pa.s">
  <eqno value="12" />
  <A value="-2.5887" />
  <B value="-0.0088828" />
  <Tmin units="K" value="334.35" />
  <Tmax units="K" value="723.15" />
  </LiquidViscosityRPS>
<COSTALDVolume name="COSTLD characteristic volume (V*)" units="m3/kmol" value="1.897158" />
<DiameterLJ name="Lennard Jones diameter" units="m" value="1.499321E-09" />
<EnergyLJ name="Lennard Jones energy" units="K" value="167.6674" />
<RacketParameter name="Rackett parameter" units="_" value="0.225555" />
<FullerVolume name="Fuller et al. diffusion volume" units="_" value="579.18" />
<MatthiasCopemanC2 name="Mathias-Copeman C2" units="_" value="0" />
<Parachor name="Parachor" units="kg0.25.m3/s0.5/kmol" value="0.207041" />
<SpecificGravity name="Specific gravity" units="_" value="0.804469" />
<Charge name="Charge" units="_" value="0" />
<CostaldAcentricFactor name="SRK acentric factor" units="_" value="1.152" />
<WilsonVolume name="Wilson volume" units="m3/kmol" value="0.492645" />
<UniquacR name="UNIQUAC r" units="_" value="19.3366" />
<UniquacQ name="UNIQUAC q" units="_" value="15.736" />
<MatthiasCopemanC3 name="Mathias-Copeman C3" units="_" value="0" />
<ChaoSeaderAcentricFactor name="Chao-Seader acentric factor" units="_" value="1.23752" />
<ChaoSeaderSolubilityParameter name="Chao-Seader solubility parameter" units="J0.5/m1.5" value="15700" />
<ChaoSeaderLiquidVolume name="Chao-Seader liquid volume" units="m3/kmol" value="0.492645" />
<UnifacVLE name="UNIFAC">
  <group id="1" value="2" />
  <group id="2" value="26" />
  </UnifacVLE>
<UnifacLLE name="UNIFAC-LLE">
  <group id="1" value="2" />
  <group id="2" value="26" />
  </UnifacLLE>
<Asog name="ASOG">
  <group id="1" value="2" />
  <group id="2" value="26" />
  </Asog>
<GCmethod name="PPR78">
  <group id="1" value="2" />
  <group id="2" value="26" />
  </GCmethod>
<Umr name="UMR">
  <group id="1" value="2" />
  <group id="2" value="26" />
  </Umr>
<ModifiedUnifac name="Modified UNIFAC">
  <group id="1" value="2" />
  <group id="2" value="26" />
  </ModifiedUnifac>
<CAS name="CAS number" value="630-02-4" />
<Smiles name="SMILES" value="CCCCCCCCCCCCCCCCCCCCCCCCCCCC" />
</compound>

