<compound>
<LibraryIndex name="Index" value="1357" />
<CompoundID name="Name" value="n-pentyl acetate" />
<StructureFormula name="Structure" value="CH3COOCH2(CH2)3CH3" />
<Family name="Family" value="56" />
<CriticalTemperature name="Critical temperature" units="K" value="605.15" />
<CriticalPressure name="Critical pressure" units="Pa" value="2800000" />
<CriticalVolume name="Critical volume" units="m3/kmol" value="0.442" />
<CriticalCompressibility name="Critical compressibility factor" units="_" value="0.245" />
<NormalBoilingPointTemperature name="Normal boiling point" units="K" value="422.15" />
<NormalMeltingPointTemperature name="Melting point" units="K" value="202.35" />
<TriplePointTemperature name="Triple point temperature" units="K" value="202.35" />
<TriplePointPressure name="Triple point pressure" units="Pa" value="0.0185761" />
<MolecularWeight name="Molecular weight" units="kg/kmol" value="130.1849" />
<LiquidVolumeAtNormalBoilingPoint name="Liquid molar volume at normal boiling point" units="m3/kmol" value="0.149382" />
<AcentricityFactor name="Acentric factor" units="_" value="0.413866" />
<RadiusOfGyration name="Radius of gyration" units="m" value="4.772E-10" />
<SolubilityParameter name="Solubility parameter" units="J0.5/m1.5" value="17360" />
<DipoleMoment name="Dipole moment" units="Coulomb.m" value="6.44E-30" />
<VanDerWaalsVolume name="Van der Waals volume" units="m3/kmol" value="0.08346" />
<VanDerWaalsArea name="Van der Waals area" units="m2/kmol" value="1.184E+09" />
<HeatOfFormation name="IG heat of formation" units="J/kmol" value="-5.055E+08" />
<GibbsEnergyOfFormation name="IG Gibbs energy of formation" units="J/kmol" value="-3.035E+08" />
<AbsEntropy name="IG absolute entropy" units="J/kmol/K" value="481800" />
<HeatOfFusionAtMeltingPoint name="Heat of fusion at melting point" units="J/kmol" value="1.65E+07" />
<MatthiasCopemanC1 name="Mathias-Copeman C1" units="_" value="1.089933" />
<HeatOfCombustion name="Standard net heat of combustion LHV" units="J/kmol" value="-3.89405E+09" />
<SolidDensity name="Solid density" units="kmol/m3">
  <eqno value="2" />
  <A value="9.3057" />
  <B value="-0.0050955" />
  <C value="0" />
  <D value="0" />
  <E value="0" />
  <Tmin units="K" value="80.94" />
  <Tmax units="K" value="202.35" />
  </SolidDensity>
<LiquidDensity name="Liquid density" units="kmol/m3">
  <eqno value="105" />
  <A value="0.12608" />
  <B value="0.12252" />
  <C value="605.15" />
  <D value="0.16886" />
  <Tmin units="K" value="202.35" />
  <Tmax units="K" value="599.9" />
  </LiquidDensity>
<VaporPressure name="Vapour pressure" units="Pa">
  <eqno value="101" />
  <A value="168.7214" />
  <B value="-11229.65" />
  <C value="-22.11732" />
  <D value="0.0000177213" />
  <E value="2" />
  <Tmin units="K" value="202.35" />
  <Tmax units="K" value="600" />
  </VaporPressure>
<HeatOfVaporization name="Heat of vaporization" units="J/kmol">
  <eqno value="106" />
  <A value="7.883914E+07" />
  <B value="0.946213" />
  <C value="-0.171734" />
  <D value="-0.730153" />
  <E value="0.419139" />
  <Tmin units="K" value="202.35" />
  <Tmax units="K" value="599.9" />
  </HeatOfVaporization>
<SolidHeatCapacityCp name="Solid heat capacity" units="J/kmol/K">
  <eqno value="1" />
  <A value="208910" />
  <Tmin units="K" value="0" />
  <Tmax units="K" value="605.15" />
  </SolidHeatCapacityCp>
<LiquidHeatCapacityCp name="Liquid heat capacity" units="J/kmol/K">
  <eqno value="16" />
  <A value="162580" />
  <B value="80.092" />
  <C value="8.5511" />
  <D value="0.011513" />
  <E value="-0.0000095523" />
  <Tmin units="K" value="209.3" />
  <Tmax units="K" value="439" />
  </LiquidHeatCapacityCp>
<IdealGasHeatCapacityCp name="Ideal gas heat capacity" units="J/kmol/K">
  <eqno value="16" />
  <A value="47433" />
  <B value="-339.24" />
  <C value="12.756" />
  <D value="0.0005476" />
  <E value="-2.1862E-07" />
  <Tmin units="K" value="273" />
  <Tmax units="K" value="1200.15" />
  </IdealGasHeatCapacityCp>
<SecondVirialCoefficient name="Second virial coefficient" units="m3/kmol">
  <eqno value="104" />
  <A value="0.34111" />
  <B value="-397.41" />
  <C value="-63.466" />
  <D value="-56487" />
  <E value="116110" />
  <Tmin units="K" value="299" />
  <Tmax units="K" value="1913" />
  </SecondVirialCoefficient>
<LiquidViscosity name="Liquid viscosity" units="Pa.s">
  <eqno value="101" />
  <A value="-24.376" />
  <B value="1661.3" />
  <C value="2.1378" />
  <D value="-0.0000051198" />
  <E value="2" />
  <Tmin units="K" value="202.35" />
  <Tmax units="K" value="573" />
  </LiquidViscosity>
<VaporViscosity name="Vapour viscosity" units="Pa.s">
  <eqno value="102" />
  <A value="4.6095E-07" />
  <B value="0.57889" />
  <C value="337.64" />
  <D value="-259.28" />
  <Tmin units="K" value="202.35" />
  <Tmax units="K" value="1000" />
  </VaporViscosity>
<LiquidThermalConductivity name="Liquid thermal conductivity" units="W/m/K">
  <eqno value="16" />
  <A value="-0.08346" />
  <B value="4.4855" />
  <C value="-1.2866" />
  <D value="-0.00064282" />
  <E value="-6.6262E-07" />
  <Tmin units="K" value="179.4" />
  <Tmax units="K" value="469.4" />
  </LiquidThermalConductivity>
<VaporThermalConductivity name="Vapour thermal conductivity" units="W/m/K">
  <eqno value="102" />
  <A value="-0.014827" />
  <B value="0.47704" />
  <C value="-3337.4" />
  <D value="-1003300" />
  <Tmin units="K" value="202.35" />
  <Tmax units="K" value="1000" />
  </VaporThermalConductivity>
<SurfaceTension name="Surface tension" units="N/m">
  <eqno value="16" />
  <A value="-0.012757" />
  <B value="49.233" />
  <C value="-3.1535" />
  <D value="0.00024702" />
  <E value="-0.000004004" />
  <Tmin units="K" value="202.35" />
  <Tmax units="K" value="599.9" />
  </SurfaceTension>
<RPPHeatCapacityCp name="Ideal gas heat capacity (RPP)" units="J/kmol/K">
  <eqno value="4" />
  <A value="-18598" />
  <B value="795.27" />
  <C value="-0.51713" />
  <D value="0.00013022" />
  <Tmin units="K" value="273" />
  <Tmax units="K" value="1200.15" />
  </RPPHeatCapacityCp>
<RelativeStaticPermittivity name="Relative static permittivity" units="_">
  <eqno value="120" />
  <A value="-5.762874" />
  <B value="-3450" />
  <C value="-20.7" />
  <Tmin units="K" value="274.15" />
  <Tmax units="K" value="444.15" />
  </RelativeStaticPermittivity>
<AntoineVaporPressure name="Antoine" units="Pa">
  <eqno value="10" />
  <A value="22.171" />
  <B value="4226.8" />
  <C value="-24.15" />
  <Tmin units="K" value="364.25" />
  <Tmax units="K" value="538.65" />
  </AntoineVaporPressure>
<LiquidViscosityRPS name="Liquid viscosity (RPS)" units="Pa.s">
  <eqno value="12" />
  <A value="-3.0509" />
  <B value="-0.012995" />
  <Tmin units="K" value="202.35" />
  <Tmax units="K" value="480" />
  </LiquidViscosityRPS>
<COSTALDVolume name="COSTLD characteristic volume (V*)" units="m3/kmol" value="0.455324" />
<DiameterLJ name="Lennard Jones diameter" units="m" value="7.686343E-10" />
<EnergyLJ name="Lennard Jones energy" units="K" value="249.9046" />
<RacketParameter name="Rackett parameter" units="_" value="0.245" />
<FullerVolume name="Fuller et al. diffusion volume" units="_" value="155.86" />
<MatthiasCopemanC2 name="Mathias-Copeman C2" units="_" value="0" />
<Parachor name="Parachor" units="kg0.25.m3/s0.5/kmol" value="0.0596961" />
<SpecificGravity name="Specific gravity" units="_" value="0.880404" />
<Charge name="Charge" units="_" value="0" />
<CostaldAcentricFactor name="SRK acentric factor" units="_" value="0.413866" />
<WilsonVolume name="Wilson volume" units="m3/kmol" value="0.149382" />
<UniquacR name="UNIQUAC r" units="_" value="5.5018" />
<UniquacQ name="UNIQUAC q" units="_" value="4.736" />
<MatthiasCopemanC3 name="Mathias-Copeman C3" units="_" value="0" />
<ChaoSeaderAcentricFactor name="Chao-Seader acentric factor" units="_" value="0.447773" />
<ChaoSeaderSolubilityParameter name="Chao-Seader solubility parameter" units="J0.5/m1.5" value="17360" />
<ChaoSeaderLiquidVolume name="Chao-Seader liquid volume" units="m3/kmol" value="0.149382" />
<UnifacVLE name="UNIFAC">
  <group id="1" value="1" />
  <group id="2" value="4" />
  <group id="22" value="1" />
  </UnifacVLE>
<UnifacLLE name="UNIFAC-LLE">
  <group id="1" value="1" />
  <group id="2" value="4" />
  <group id="25" value="1" />
  </UnifacLLE>
<Asog name="ASOG">
  <group id="1" value="2" />
  <group id="2" value="4" />
  <group id="22" value="1" />
  </Asog>
<Umr name="UMR">
  <group id="1" value="1" />
  <group id="2" value="4" />
  <group id="22" value="1" />
  </Umr>
<ModifiedUnifac name="Modified UNIFAC">
  <group id="1" value="1" />
  <group id="2" value="4" />
  <group id="21" value="1" />
  </ModifiedUnifac>
<CAS name="CAS number" value="628-63-7" />
<Smiles name="SMILES" value="CC(=O)OCCCCC" />
</compound>

