<compound>
<LibraryIndex name="Index" value="78" />
<CompoundID name="Name" value="n-pentacosane" />
<StructureFormula name="Structure" value="CH3(CH2)23CH3" />
<Family name="Family" value="1" />
<CriticalTemperature name="Critical temperature" units="K" value="812" />
<CriticalPressure name="Critical pressure" units="Pa" value="950000" />
<CriticalVolume name="Critical volume" units="m3/kmol" value="1.46" />
<CriticalCompressibility name="Critical compressibility factor" units="_" value="0.20544" />
<NormalBoilingPointTemperature name="Normal boiling point" units="K" value="675.05" />
<NormalMeltingPointTemperature name="Melting point" units="K" value="327.9" />
<TriplePointTemperature name="Triple point temperature" units="K" value="326.65" />
<TriplePointPressure name="Triple point pressure" units="Pa" value="0.00079876" />
<MolecularWeight name="Molecular weight" units="kg/kmol" value="352.6804" />
<LiquidVolumeAtNormalBoilingPoint name="Liquid molar volume at normal boiling point" units="m3/kmol" value="0.442767" />
<AcentricityFactor name="Acentric factor" units="_" value="1.10526" />
<RadiusOfGyration name="Radius of gyration" units="m" value="9.58E-10" />
<SolubilityParameter name="Solubility parameter" units="J0.5/m1.5" value="15800" />
<DipoleMoment name="Dipole moment" units="Coulomb.m" value="0" />
<VanDerWaalsVolume name="Van der Waals volume" units="m3/kmol" value="0.2626" />
<VanDerWaalsArea name="Van der Waals area" units="m2/kmol" value="3.529E+09" />
<HeatOfFormation name="IG heat of formation" units="J/kmol" value="-5.607E+08" />
<GibbsEnergyOfFormation name="IG Gibbs energy of formation" units="J/kmol" value="1.553E+08" />
<AbsEntropy name="IG absolute entropy" units="J/kmol/K" value="1143000" />
<HeatOfFusionAtMeltingPoint name="Heat of fusion at melting point" units="J/kmol" value="5.7739E+07" />
<MatthiasCopemanC1 name="Mathias-Copeman C1" units="_" value="1.856007" />
<HeatOfCombustion name="Standard net heat of combustion LHV" units="J/kmol" value="-1.539E+10" />
<SolidDensity name="Solid density" units="kmol/m3">
  <eqno value="100" />
  <A value="2.8278" />
  <B value="-0.0010821" />
  <C value="0" />
  <D value="0" />
  <E value="0" />
  <Tmin units="K" value="130.66" />
  <Tmax units="K" value="326.65" />
  </SolidDensity>
<LiquidDensity name="Liquid density" units="kmol/m3">
  <eqno value="105" />
  <A value="0.00063401" />
  <B value="0.015388" />
  <C value="836.31" />
  <D value="0.093752" />
  <Tmin units="K" value="293.15" />
  <Tmax units="K" value="812" />
  </LiquidDensity>
<VaporPressure name="Vapour pressure" units="Pa">
  <eqno value="101" />
  <A value="-203.2504" />
  <B value="-1095.063" />
  <C value="35.1974" />
  <D value="-0.0000282197" />
  <E value="2" />
  <Tmin units="K" value="326.65" />
  <Tmax units="K" value="812" />
  </VaporPressure>
<HeatOfVaporization name="Heat of vaporization" units="J/kmol">
  <eqno value="106" />
  <A value="1.9288E+08" />
  <B value="1.8937" />
  <C value="-3.4712" />
  <D value="3.9636" />
  <E value="-1.9344" />
  <Tmin units="K" value="326.65" />
  <Tmax units="K" value="812" />
  </HeatOfVaporization>
<SolidHeatCapacityCp name="Solid heat capacity" units="J/kmol/K">
  <eqno value="100" />
  <A value="162660" />
  <B value="-988.28" />
  <C value="34.605" />
  <D value="-0.17879" />
  <E value="0.00032498" />
  <Tmin units="K" value="91.3" />
  <Tmax units="K" value="294.5" />
  </SolidHeatCapacityCp>
<LiquidHeatCapacityCp name="Liquid heat capacity" units="J/kmol/K">
  <eqno value="16" />
  <A value="528340" />
  <B value="-126.87" />
  <C value="12.075" />
  <D value="0.002955" />
  <E value="-9.8642E-07" />
  <Tmin units="K" value="320" />
  <Tmax units="K" value="750" />
  </LiquidHeatCapacityCp>
<IdealGasHeatCapacityCp name="Ideal gas heat capacity" units="J/kmol/K">
  <eqno value="16" />
  <A value="330530" />
  <B value="-566.25" />
  <C value="14.283" />
  <D value="0.00012874" />
  <E value="-4.9096E-08" />
  <Tmin units="K" value="273" />
  <Tmax units="K" value="1500" />
  </IdealGasHeatCapacityCp>
<SecondVirialCoefficient name="Second virial coefficient" units="m3/kmol">
  <eqno value="104" />
  <A value="0.87493" />
  <B value="-408.43" />
  <C value="-1227.2" />
  <D value="-3003700" />
  <E value="5985700" />
  <Tmin units="K" value="406" />
  <Tmax units="K" value="1500" />
  </SecondVirialCoefficient>
<LiquidViscosity name="Liquid viscosity" units="Pa.s">
  <eqno value="101" />
  <A value="-9.804" />
  <B value="1971.8" />
  <C value="-0.26998" />
  <D value="3.9914E-07" />
  <E value="2" />
  <Tmin units="K" value="326.65" />
  <Tmax units="K" value="730.8" />
  </LiquidViscosity>
<VaporViscosity name="Vapour viscosity" units="Pa.s">
  <eqno value="102" />
  <A value="2.8769E-07" />
  <B value="0.61575" />
  <C value="746.72" />
  <D value="4040.4" />
  <Tmin units="K" value="326.65" />
  <Tmax units="K" value="1000" />
  </VaporViscosity>
<LiquidThermalConductivity name="Liquid thermal conductivity" units="W/m/K">
  <eqno value="16" />
  <A value="0.0058343" />
  <B value="-203.86" />
  <C value="-0.37432" />
  <D value="-0.0029792" />
  <E value="2.4773E-07" />
  <Tmin units="K" value="326.65" />
  <Tmax units="K" value="675.05" />
  </LiquidThermalConductivity>
<VaporThermalConductivity name="Vapour thermal conductivity" units="W/m/K">
  <eqno value="102" />
  <A value="-266.99" />
  <B value="1.0606" />
  <C value="-6.4961E+09" />
  <D value="-1.2167E+11" />
  <Tmin units="K" value="326.65" />
  <Tmax units="K" value="1000" />
  </VaporThermalConductivity>
<SurfaceTension name="Surface tension" units="N/m">
  <eqno value="16" />
  <A value="-0.028179" />
  <B value="-85.291" />
  <C value="-1.8555" />
  <D value="-0.0026056" />
  <E value="7.8884E-07" />
  <Tmin units="K" value="326.65" />
  <Tmax units="K" value="812" />
  </SurfaceTension>
<RPPHeatCapacityCp name="Ideal gas heat capacity (RPP)" units="J/kmol/K">
  <eqno value="4" />
  <A value="-19038" />
  <B value="2371.9" />
  <C value="-1.3272" />
  <D value="0.00028688" />
  <Tmin units="K" value="300" />
  <Tmax units="K" value="1500" />
  </RPPHeatCapacityCp>
<AntoineVaporPressure name="Antoine" units="Pa">
  <eqno value="10" />
  <A value="21.542" />
  <B value="5136.2" />
  <C value="-161.6" />
  <Tmin units="K" value="503.15" />
  <Tmax units="K" value="735.37" />
  </AntoineVaporPressure>
<LiquidViscosityRPS name="Liquid viscosity (RPS)" units="Pa.s">
  <eqno value="12" />
  <A value="-2.8494" />
  <B value="-0.0087525" />
  <Tmin units="K" value="326.65" />
  <Tmax units="K" value="677.92" />
  </LiquidViscosityRPS>
<COSTALDVolume name="COSTLD characteristic volume (V*)" units="m3/kmol" value="1.778027" />
<DiameterLJ name="Lennard Jones diameter" units="m" value="1.403995E-09" />
<EnergyLJ name="Lennard Jones energy" units="K" value="181.8002" />
<RacketParameter name="Rackett parameter" units="_" value="0.227859" />
<FullerVolume name="Fuller et al. diffusion volume" units="_" value="517.62" />
<MatthiasCopemanC2 name="Mathias-Copeman C2" units="_" value="0" />
<Parachor name="Parachor" units="kg0.25.m3/s0.5/kmol" value="0.189742" />
<SpecificGravity name="Specific gravity" units="_" value="0.803521" />
<Charge name="Charge" units="_" value="0" />
<CostaldAcentricFactor name="SRK acentric factor" units="_" value="1" />
<WilsonVolume name="Wilson volume" units="m3/kmol" value="0.442767" />
<UniquacR name="UNIQUAC r" units="_" value="17.3134" />
<UniquacQ name="UNIQUAC q" units="_" value="14.116" />
<MatthiasCopemanC3 name="Mathias-Copeman C3" units="_" value="0" />
<ChaoSeaderAcentricFactor name="Chao-Seader acentric factor" units="_" value="1.10526" />
<ChaoSeaderSolubilityParameter name="Chao-Seader solubility parameter" units="J0.5/m1.5" value="15800" />
<ChaoSeaderLiquidVolume name="Chao-Seader liquid volume" units="m3/kmol" value="0.442767" />
<UnifacVLE name="UNIFAC">
  <group id="1" value="2" />
  <group id="2" value="23" />
  </UnifacVLE>
<UnifacLLE name="UNIFAC-LLE">
  <group id="1" value="2" />
  <group id="2" value="23" />
  </UnifacLLE>
<Asog name="ASOG">
  <group id="1" value="2" />
  <group id="2" value="23" />
  </Asog>
<GCmethod name="PPR78">
  <group id="1" value="2" />
  <group id="2" value="23" />
  </GCmethod>
<Umr name="UMR">
  <group id="1" value="2" />
  <group id="2" value="23" />
  </Umr>
<ModifiedUnifac name="Modified UNIFAC">
  <group id="1" value="2" />
  <group id="2" value="23" />
  </ModifiedUnifac>
<CAS name="CAS number" value="629-99-2" />
<Smiles name="SMILES" value="CCCCCCCCCCCCCCCCCCCCCCCCC" />
</compound>

