<compound>
<LibraryIndex name="Index" value="149" />
<CompoundID name="Name" value="n-propylcyclohexane" />
<StructureFormula name="Structure" value="(C6H11)CH2CH2CH3" />
<Family name="Family" value="7" />
<CriticalTemperature name="Critical temperature" units="K" value="639.15" />
<CriticalPressure name="Critical pressure" units="Pa" value="2807000" />
<CriticalVolume name="Critical volume" units="m3/kmol" value="0.477" />
<CriticalCompressibility name="Critical compressibility factor" units="_" value="0.252" />
<NormalBoilingPointTemperature name="Normal boiling point" units="K" value="429.897" />
<NormalMeltingPointTemperature name="Melting point" units="K" value="178.25" />
<TriplePointTemperature name="Triple point temperature" units="K" value="178.25" />
<TriplePointPressure name="Triple point pressure" units="Pa" value="0.000859078" />
<MolecularWeight name="Molecular weight" units="kg/kmol" value="126.2392" />
<LiquidVolumeAtNormalBoilingPoint name="Liquid molar volume at normal boiling point" units="m3/kmol" value="0.159758" />
<AcentricityFactor name="Acentric factor" units="_" value="0.259535" />
<RadiusOfGyration name="Radius of gyration" units="m" value="4.367E-10" />
<SolubilityParameter name="Solubility parameter" units="J0.5/m1.5" value="16350" />
<DipoleMoment name="Dipole moment" units="Coulomb.m" value="0" />
<VanDerWaalsVolume name="Van der Waals volume" units="m3/kmol" value="0.09092" />
<VanDerWaalsArea name="Van der Waals area" units="m2/kmol" value="1.157E+09" />
<HeatOfFormation name="IG heat of formation" units="J/kmol" value="-1.933E+08" />
<GibbsEnergyOfFormation name="IG Gibbs energy of formation" units="J/kmol" value="4.738E+07" />
<AbsEntropy name="IG absolute entropy" units="J/kmol/K" value="419530" />
<HeatOfFusionAtMeltingPoint name="Heat of fusion at melting point" units="J/kmol" value="1.037E+07" />
<MatthiasCopemanC1 name="Mathias-Copeman C1" units="_" value="0.87516" />
<HeatOfCombustion name="Standard net heat of combustion LHV" units="J/kmol" value="-5.47966E+09" />
<SolidDensity name="Solid density" units="kmol/m3">
  <eqno value="2" />
  <A value="8.8087" />
  <B value="-0.005494" />
  <Tmin units="K" value="71.3" />
  <Tmax units="K" value="178.25" />
  </SolidDensity>
<LiquidDensity name="Liquid density" units="kmol/m3">
  <eqno value="105" />
  <A value="0.55532" />
  <B value="0.26594" />
  <C value="639.15" />
  <D value="0.29886" />
  <Tmin units="K" value="178.25" />
  <Tmax units="K" value="639.15" />
  </LiquidDensity>
<VaporPressure name="Vapour pressure" units="Pa">
  <eqno value="101" />
  <A value="82.958" />
  <B value="-7871.7" />
  <C value="-8.8759" />
  <D value="0.0000037842" />
  <E value="2" />
  <Tmin units="K" value="178.25" />
  <Tmax units="K" value="639.15" />
  </VaporPressure>
<HeatOfVaporization name="Heat of vaporization" units="J/kmol">
  <eqno value="106" />
  <A value="6.8086E+07" />
  <B value="1.2548" />
  <C value="-2.1193" />
  <D value="2.1809" />
  <E value="-0.84474" />
  <Tmin units="K" value="178.25" />
  <Tmax units="K" value="639.15" />
  </HeatOfVaporization>
<SolidHeatCapacityCp name="Solid heat capacity" units="J/kmol/K">
  <eqno value="100" />
  <A value="-17515" />
  <B value="1789.5" />
  <C value="-10.949" />
  <D value="0.037847" />
  <E value="-0.000022183" />
  <Tmin units="K" value="20.44" />
  <Tmax units="K" value="166.83" />
  </SolidHeatCapacityCp>
<LiquidHeatCapacityCp name="Liquid heat capacity" units="J/kmol/K">
  <eqno value="16" />
  <A value="47569" />
  <B value="39.903" />
  <C value="11.009" />
  <D value="0.0038436" />
  <E value="-0.0000012583" />
  <Tmin units="K" value="178.25" />
  <Tmax units="K" value="429.9" />
  </LiquidHeatCapacityCp>
<IdealGasHeatCapacityCp name="Ideal gas heat capacity" units="J/kmol/K">
  <eqno value="16" />
  <A value="123230" />
  <B value="-835.51" />
  <C value="14.003" />
  <D value="-0.00055451" />
  <E value="1.5912E-07" />
  <Tmin units="K" value="200" />
  <Tmax units="K" value="1500" />
  </IdealGasHeatCapacityCp>
<SecondVirialCoefficient name="Second virial coefficient" units="m3/kmol">
  <eqno value="104" />
  <A value="0.27598" />
  <B value="-333.23" />
  <C value="-82.257" />
  <D value="-29470" />
  <E value="49574" />
  <Tmin units="K" value="319" />
  <Tmax units="K" value="1754" />
  </SecondVirialCoefficient>
<LiquidViscosity name="Liquid viscosity" units="Pa.s">
  <eqno value="101" />
  <A value="-18.964" />
  <B value="1768.3" />
  <C value="1.0133" />
  <D value="0.0000031666" />
  <E value="2" />
  <Tmin units="K" value="248.15" />
  <Tmax units="K" value="429.9" />
  </LiquidViscosity>
<VaporViscosity name="Vapour viscosity" units="Pa.s">
  <eqno value="102" />
  <A value="0.0000010206" />
  <B value="0.44533" />
  <C value="352.16" />
  <D value="7219.8" />
  <Tmin units="K" value="178.25" />
  <Tmax units="K" value="1000" />
  </VaporViscosity>
<LiquidThermalConductivity name="Liquid thermal conductivity" units="W/m/K">
  <eqno value="16" />
  <A value="-0.049742" />
  <B value="3.3035" />
  <C value="-1.5814" />
  <D value="-0.00048571" />
  <E value="-0.000001015" />
  <Tmin units="K" value="178.25" />
  <Tmax units="K" value="429.9" />
  </LiquidThermalConductivity>
<VaporThermalConductivity name="Vapour thermal conductivity" units="W/m/K">
  <eqno value="102" />
  <A value="0.000001205" />
  <B value="1.6222" />
  <C value="-42.945" />
  <D value="15739" />
  <Tmin units="K" value="178.25" />
  <Tmax units="K" value="1000" />
  </VaporThermalConductivity>
<SurfaceTension name="Surface tension" units="N/m">
  <eqno value="16" />
  <A value="-0.011029" />
  <B value="31.201" />
  <C value="-3.1062" />
  <D value="0.00016942" />
  <E value="-0.000003854" />
  <Tmin units="K" value="178.25" />
  <Tmax units="K" value="639.15" />
  </SurfaceTension>
<RPPHeatCapacityCp name="Ideal gas heat capacity (RPP)" units="J/kmol/K">
  <eqno value="4" />
  <A value="-62027.8" />
  <B value="982.0266" />
  <C value="-0.560028" />
  <D value="0.000114244" />
  <Tmin units="K" value="200" />
  <Tmax units="K" value="1200" />
  </RPPHeatCapacityCp>
<AntoineVaporPressure name="Antoine" units="Pa">
  <eqno value="10" />
  <A value="20.417" />
  <B value="3136.4" />
  <C value="-77.095" />
  <Tmin units="K" value="383.78" />
  <Tmax units="K" value="566.38" />
  </AntoineVaporPressure>
<LiquidViscosityRPS name="Liquid viscosity (RPS)" units="Pa.s">
  <eqno value="13" />
  <A value="1.8674" />
  <B value="-0.044293" />
  <C value="0.000049254" />
  <Tmin units="K" value="248.15" />
  <Tmax units="K" value="429.9" />
  </LiquidViscosityRPS>
<COSTALDVolume name="COSTLD characteristic volume (V*)" units="m3/kmol" value="0.4812" />
<DiameterLJ name="Lennard Jones diameter" units="m" value="7.622026E-10" />
<EnergyLJ name="Lennard Jones energy" units="K" value="292.1178" />
<FullerVolume name="Fuller et al. diffusion volume" units="_" value="184.68" />
<MatthiasCopemanC2 name="Mathias-Copeman C2" units="_" value="0" />
<Parachor name="Parachor" units="kg0.25.m3/s0.5/kmol" value="0.0646" />
<SpecificGravity name="Specific gravity" units="_" value="0.796026" />
<Charge name="Charge" units="_" value="0" />
<CostaldAcentricFactor name="SRK acentric factor" units="_" value="0.26539" />
<WilsonVolume name="Wilson volume" units="m3/kmol" value="0.159758" />
<UniquacR name="UNIQUAC r" units="_" value="6.068799" />
<UniquacQ name="UNIQUAC q" units="_" value="4.856" />
<MatthiasCopemanC3 name="Mathias-Copeman C3" units="_" value="0" />
<ChaoSeaderAcentricFactor name="Chao-Seader acentric factor" units="_" value="0.2577" />
<ChaoSeaderSolubilityParameter name="Chao-Seader solubility parameter" units="J0.5/m1.5" value="16377.1" />
<ChaoSeaderLiquidVolume name="Chao-Seader liquid volume" units="m3/kmol" value="0.159758" />
<UnifacVLE name="UNIFAC">
  <group id="1" value="1" />
  <group id="2" value="7" />
  <group id="3" value="1" />
  </UnifacVLE>
<UnifacLLE name="UNIFAC-LLE">
  <group id="1" value="1" />
  <group id="2" value="7" />
  <group id="3" value="1" />
  </UnifacLLE>
<Asog name="ASOG">
  <group id="1" value="1" />
  <group id="2" value="2" />
  <group id="12" value="1" />
  <group id="13" value="5" />
  </Asog>
<GCmethod name="PPR78">
  <group id="1" value="1" />
  <group id="2" value="2" />
  <group id="10" value="5" />
  <group id="11" value="1" />
  </GCmethod>
<Umr name="UMR">
  <group id="1" value="1" />
  <group id="2" value="7" />
  <group id="3" value="1" />
  </Umr>
<ModifiedUnifac name="Modified UNIFAC">
  <group id="1" value="1" />
  <group id="2" value="2" />
  <group id="78" value="5" />
  <group id="79" value="1" />
  </ModifiedUnifac>
<CAS name="CAS number" value="1678-92-8" />
<Smiles name="SMILES" value="C1CCCCC1CCC" />
</compound>

