<compound>
<LibraryIndex name="Index" value="114" />
<CompoundID name="Name" value="n-propylcyclopentane" />
<StructureFormula name="Structure" value="(C5H9)CH2CH2CH3" />
<Family name="Family" value="6" />
<CriticalTemperature name="Critical temperature" units="K" value="596" />
<CriticalPressure name="Critical pressure" units="Pa" value="3020000" />
<CriticalVolume name="Critical volume" units="m3/kmol" value="0.428" />
<CriticalCompressibility name="Critical compressibility factor" units="_" value="0.261" />
<NormalBoilingPointTemperature name="Normal boiling point" units="K" value="404.11" />
<NormalMeltingPointTemperature name="Melting point" units="K" value="155.81" />
<TriplePointTemperature name="Triple point temperature" units="K" value="155.81" />
<TriplePointPressure name="Triple point pressure" units="Pa" value="0.0000458874" />
<MolecularWeight name="Molecular weight" units="kg/kmol" value="112.2126" />
<LiquidVolumeAtNormalBoilingPoint name="Liquid molar volume at normal boiling point" units="m3/kmol" value="0.145193" />
<AcentricityFactor name="Acentric factor" units="_" value="0.326642" />
<RadiusOfGyration name="Radius of gyration" units="m" value="4.135E-10" />
<SolubilityParameter name="Solubility parameter" units="J0.5/m1.5" value="16360" />
<DipoleMoment name="Dipole moment" units="Coulomb.m" value="0" />
<VanDerWaalsVolume name="Van der Waals volume" units="m3/kmol" value="0.08062" />
<VanDerWaalsArea name="Van der Waals area" units="m2/kmol" value="1.022E+09" />
<HeatOfFormation name="IG heat of formation" units="J/kmol" value="-1.481E+08" />
<GibbsEnergyOfFormation name="IG Gibbs energy of formation" units="J/kmol" value="5.344E+07" />
<AbsEntropy name="IG absolute entropy" units="J/kmol/K" value="414500" />
<HeatOfFusionAtMeltingPoint name="Heat of fusion at melting point" units="J/kmol" value="1.003E+07" />
<HeatOfCombustion name="Standard net heat of combustion LHV" units="J/kmol" value="-4.89356E+09" />
<SolidDensity name="Solid density" units="kmol/m3">
  <eqno value="2" />
  <A value="9.906" />
  <B value="-0.0070521" />
  <Tmin units="K" value="62.32" />
  <Tmax units="K" value="155.81" />
  </SolidDensity>
<LiquidDensity name="Liquid density" units="kmol/m3">
  <eqno value="105" />
  <A value="0.63061" />
  <B value="0.26934" />
  <C value="596" />
  <D value="0.28169" />
  <Tmin units="K" value="155.81" />
  <Tmax units="K" value="572.83" />
  </LiquidDensity>
<VaporPressure name="Vapour pressure" units="Pa">
  <eqno value="101" />
  <A value="95.39512" />
  <B value="-7846.538" />
  <C value="-10.93845" />
  <D value="7.332031E-06" />
  <E value="2" />
  <Tmin units="K" value="155.81" />
  <Tmax units="K" value="596" />
  </VaporPressure>
<HeatOfVaporization name="Heat of vaporization" units="J/kmol">
  <eqno value="106" />
  <A value="7.088104E+07" />
  <B value="1.477689" />
  <C value="-1.919309" />
  <D value="1.219865" />
  <E value="-0.332624" />
  <Tmin units="K" value="155.81" />
  <Tmax units="K" value="572.83" />
  </HeatOfVaporization>
<SolidHeatCapacityCp name="Solid heat capacity" units="J/kmol/K">
  <eqno value="100" />
  <A value="-21119" />
  <B value="1855.5" />
  <C value="-9.5485" />
  <D value="0.012148" />
  <E value="0.000065366" />
  <Tmin units="K" value="20.68" />
  <Tmax units="K" value="155.81" />
  </SolidHeatCapacityCp>
<LiquidHeatCapacityCp name="Liquid heat capacity" units="J/kmol/K">
  <eqno value="16" />
  <A value="121270" />
  <B value="281.76" />
  <C value="6.7151" />
  <D value="0.017545" />
  <E value="-0.000016082" />
  <Tmin units="K" value="155.81" />
  <Tmax units="K" value="404.11" />
  </LiquidHeatCapacityCp>
<IdealGasHeatCapacityCp name="Ideal gas heat capacity" units="J/kmol/K">
  <eqno value="16" />
  <A value="82387" />
  <B value="-676.01" />
  <C value="13.514" />
  <D value="-0.00019546" />
  <E value="4.9854E-08" />
  <Tmin units="K" value="200" />
  <Tmax units="K" value="1500" />
  </IdealGasHeatCapacityCp>
<SecondVirialCoefficient name="Second virial coefficient" units="m3/kmol">
  <eqno value="104" />
  <A value="0.2479" />
  <B value="-262.92" />
  <C value="-60.711" />
  <D value="-16273" />
  <E value="25758" />
  <Tmin units="K" value="298" />
  <Tmax units="K" value="1500" />
  </SecondVirialCoefficient>
<LiquidViscosity name="Liquid viscosity" units="Pa.s">
  <eqno value="101" />
  <A value="-22.725" />
  <B value="1601.8" />
  <C value="1.7512" />
  <D value="2.3108E-07" />
  <E value="2" />
  <Tmin units="K" value="200" />
  <Tmax units="K" value="404.11" />
  </LiquidViscosity>
<VaporViscosity name="Vapour viscosity" units="Pa.s">
  <eqno value="102" />
  <A value="0.0000028167" />
  <B value="0.32978" />
  <C value="562.31" />
  <D value="4948.1" />
  <Tmin units="K" value="155.81" />
  <Tmax units="K" value="1000" />
  </VaporViscosity>
<LiquidThermalConductivity name="Liquid thermal conductivity" units="W/m/K">
  <eqno value="16" />
  <A value="-0.033741" />
  <B value="2.5308" />
  <C value="-1.6237" />
  <D value="-0.00058186" />
  <E value="-0.0000013118" />
  <Tmin units="K" value="155.81" />
  <Tmax units="K" value="404.11" />
  </LiquidThermalConductivity>
<VaporThermalConductivity name="Vapour thermal conductivity" units="W/m/K">
  <eqno value="102" />
  <A value="0.000098309" />
  <B value="1.0636" />
  <C value="611.41" />
  <D value="33175" />
  <Tmin units="K" value="155.81" />
  <Tmax units="K" value="1000" />
  </VaporThermalConductivity>
<SurfaceTension name="Surface tension" units="N/m">
  <eqno value="16" />
  <A value="-0.014846" />
  <B value="15.619" />
  <C value="-2.8681" />
  <D value="-0.00048241" />
  <E value="-0.0000031204" />
  <Tmin units="K" value="155.81" />
  <Tmax units="K" value="572.83" />
  </SurfaceTension>
<RPPHeatCapacityCp name="Ideal gas heat capacity (RPP)" units="J/kmol/K">
  <eqno value="4" />
  <A value="-64605.14" />
  <B value="897.217" />
  <C value="-0.586513" />
  <D value="0.000162009" />
  <Tmin units="K" value="200" />
  <Tmax units="K" value="1200" />
  </RPPHeatCapacityCp>
<AntoineVaporPressure name="Antoine" units="Pa">
  <eqno value="10" />
  <A value="20.961" />
  <B value="3302.2" />
  <C value="-54.096" />
  <Tmin units="K" value="358.15" />
  <Tmax units="K" value="526.5" />
  </AntoineVaporPressure>
<LiquidViscosityRPS name="Liquid viscosity (RPS)" units="Pa.s">
  <eqno value="13" />
  <A value="1.393" />
  <B value="-0.045558" />
  <C value="0.000054398" />
  <Tmin units="K" value="200" />
  <Tmax units="K" value="404.11" />
  </LiquidViscosityRPS>
<COSTALDVolume name="COSTLD characteristic volume (V*)" units="m3/kmol" value="0.43959" />
<DiameterLJ name="Lennard Jones diameter" units="m" value="7.048406E-10" />
<EnergyLJ name="Lennard Jones energy" units="K" value="309.076" />
<FullerVolume name="Fuller et al. diffusion volume" units="_" value="164.16" />
<Parachor name="Parachor" units="kg0.25.m3/s0.5/kmol" value="0.0573" />
<SpecificGravity name="Specific gravity" units="_" value="0.779333" />
<Charge name="Charge" units="_" value="0" />
<CostaldAcentricFactor name="SRK acentric factor" units="_" value="0.34698" />
<WilsonVolume name="Wilson volume" units="m3/kmol" value="0.145193" />
<UniquacR name="UNIQUAC r" units="_" value="5.3944" />
<UniquacQ name="UNIQUAC q" units="_" value="4.316" />
<ApiSrkS2 name="API-SRK s2" units="_" value="0.012036" />
<ChaoSeaderAcentricFactor name="Chao-Seader acentric factor" units="_" value="0.27189" />
<ChaoSeaderSolubilityParameter name="Chao-Seader solubility parameter" units="J0.5/m1.5" value="16393.5" />
<ChaoSeaderLiquidVolume name="Chao-Seader liquid volume" units="m3/kmol" value="0.145193" />
<UnifacVLE name="UNIFAC">
  <group id="1" value="1" />
  <group id="2" value="6" />
  <group id="3" value="1" />
  </UnifacVLE>
<UnifacLLE name="UNIFAC-LLE">
  <group id="1" value="1" />
  <group id="2" value="6" />
  <group id="3" value="1" />
  </UnifacLLE>
<Asog name="ASOG">
  <group id="1" value="1" />
  <group id="2" value="2" />
  <group id="12" value="1" />
  <group id="13" value="4" />
  </Asog>
<GCmethod name="PPR78">
  <group id="1" value="1" />
  <group id="2" value="2" />
  <group id="10" value="4" />
  <group id="11" value="1" />
  </GCmethod>
<Umr name="UMR">
  <group id="1" value="1" />
  <group id="2" value="6" />
  <group id="3" value="1" />
  </Umr>
<ModifiedUnifac name="Modified UNIFAC">
  <group id="1" value="1" />
  <group id="2" value="2" />
  <group id="78" value="4" />
  <group id="79" value="1" />
  </ModifiedUnifac>
<CAS name="CAS number" value="2040-96-2" />
<Smiles name="SMILES" value="C1CCCC1(CCC)" />
</compound>

