<compound>
<LibraryIndex name="Index" value="1803" />
<CompoundID name="Name" value="n-propyl mercaptan" />
<StructureFormula name="Structure" value="CH3CH2CH2SH" />
<Family name="Family" value="41" />
<CriticalTemperature name="Critical temperature" units="K" value="536" />
<CriticalPressure name="Critical pressure" units="Pa" value="4520000" />
<CriticalVolume name="Critical volume" units="m3/kmol" value="0.254" />
<CriticalCompressibility name="Critical compressibility factor" units="_" value="0.264" />
<NormalBoilingPointTemperature name="Normal boiling point" units="K" value="340.65" />
<NormalMeltingPointTemperature name="Melting point" units="K" value="159.85" />
<TriplePointTemperature name="Triple point temperature" units="K" value="160" />
<TriplePointPressure name="Triple point pressure" units="Pa" value="0.0651025" />
<MolecularWeight name="Molecular weight" units="kg/kmol" value="76.16061" />
<LiquidVolumeAtNormalBoilingPoint name="Liquid molar volume at normal boiling point" units="m3/kmol" value="0.0911676" />
<AcentricityFactor name="Acentric factor" units="_" value="0.225" />
<RadiusOfGyration name="Radius of gyration" units="m" value="2.88328E-10" />
<SolubilityParameter name="Solubility parameter" units="J0.5/m1.5" value="18020" />
<DipoleMoment name="Dipole moment" units="Coulomb.m" value="5.17E-30" />
<VanDerWaalsVolume name="Van der Waals volume" units="m3/kmol" value="0.04894" />
<VanDerWaalsArea name="Van der Waals area" units="m2/kmol" value="7.1E+08" />
<HeatOfFormation name="IG heat of formation" units="J/kmol" value="-6.75E+07" />
<GibbsEnergyOfFormation name="IG Gibbs energy of formation" units="J/kmol" value="2700000" />
<AbsEntropy name="IG absolute entropy" units="J/kmol/K" value="336400" />
<HeatOfFusionAtMeltingPoint name="Heat of fusion at melting point" units="J/kmol" value="5477000" />
<MatthiasCopemanC1 name="Mathias-Copeman C1" units="_" value="0.82526" />
<HeatOfCombustion name="Standard net heat of combustion LHV" units="J/kmol" value="-2.345E+09" />
<SolidDensity name="Solid density" units="kmol/m3">
  <eqno value="2" />
  <A value="16.174" />
  <B value="-0.011629" />
  <C value="0" />
  <D value="0" />
  <E value="0" />
  <Tmin units="K" value="63.98" />
  <Tmax units="K" value="159.95" />
  </SolidDensity>
<LiquidDensity name="Liquid density" units="kmol/m3">
  <eqno value="105" />
  <A value="0.98491" />
  <B value="0.2613" />
  <C value="536.61" />
  <D value="0.28105" />
  <Tmin units="K" value="159.95" />
  <Tmax units="K" value="536.6" />
  </LiquidDensity>
<VaporPressure name="Vapour pressure" units="Pa">
  <eqno value="101" />
  <A value="81.44938" />
  <B value="-6196.556" />
  <C value="-9.018418" />
  <D value="0.0000073391" />
  <E value="2" />
  <Tmin units="K" value="159.95" />
  <Tmax units="K" value="536.6" />
  </VaporPressure>
<HeatOfVaporization name="Heat of vaporization" units="J/kmol">
  <eqno value="106" />
  <A value="4.183879E+07" />
  <B value="-0.0306824" />
  <C value="1.010385" />
  <D value="-0.640892" />
  <E value="-0.0194755" />
  <Tmin units="K" value="159.95" />
  <Tmax units="K" value="516.78" />
  </HeatOfVaporization>
<SolidHeatCapacityCp name="Solid heat capacity" units="J/kmol/K">
  <eqno value="100" />
  <A value="-15951" />
  <B value="1376.4" />
  <C value="-8.0131" />
  <D value="0.022215" />
  <E value="8.4808E-07" />
  <Tmin units="K" value="18.62" />
  <Tmax units="K" value="136.69" />
  </SolidHeatCapacityCp>
<LiquidHeatCapacityCp name="Liquid heat capacity" units="J/kmol/K">
  <eqno value="16" />
  <A value="104970" />
  <B value="204.83" />
  <C value="8.2793" />
  <D value="0.0048108" />
  <E value="0.0000020317" />
  <Tmin units="K" value="159.95" />
  <Tmax units="K" value="440" />
  </LiquidHeatCapacityCp>
<IdealGasHeatCapacityCp name="Ideal gas heat capacity" units="J/kmol/K">
  <eqno value="16" />
  <A value="69258" />
  <B value="-718.05" />
  <C value="12.587" />
  <D value="-0.000090812" />
  <E value="1.349E-08" />
  <Tmin units="K" value="200" />
  <Tmax units="K" value="1500" />
  </IdealGasHeatCapacityCp>
<SecondVirialCoefficient name="Second virial coefficient" units="m3/kmol">
  <eqno value="104" />
  <A value="0.16509" />
  <B value="-214.88" />
  <C value="-18.784" />
  <D value="-1765.2" />
  <E value="1192.4" />
  <Tmin units="K" value="266.5" />
  <Tmax units="K" value="1599" />
  </SecondVirialCoefficient>
<LiquidViscosity name="Liquid viscosity" units="Pa.s">
  <eqno value="101" />
  <A value="-8.6328" />
  <B value="806.3" />
  <C value="-0.3609" />
  <D value="0.0000011977" />
  <E value="2" />
  <Tmin units="K" value="159.95" />
  <Tmax units="K" value="393" />
  </LiquidViscosity>
<VaporViscosity name="Vapour viscosity" units="Pa.s">
  <eqno value="102" />
  <A value="2.0609E-07" />
  <B value="0.72623" />
  <C value="217.41" />
  <D value="-10810" />
  <Tmin units="K" value="159.95" />
  <Tmax units="K" value="1000" />
  </VaporViscosity>
<LiquidThermalConductivity name="Liquid thermal conductivity" units="W/m/K">
  <eqno value="16" />
  <A value="-0.061115" />
  <B value="3.3836" />
  <C value="-1.3478" />
  <D value="-0.00049487" />
  <E value="-0.0000016211" />
  <Tmin units="K" value="159.95" />
  <Tmax units="K" value="340.87" />
  </LiquidThermalConductivity>
<VaporThermalConductivity name="Vapour thermal conductivity" units="W/m/K">
  <eqno value="102" />
  <A value="0.0088953" />
  <B value="0.51444" />
  <C value="2337.9" />
  <D value="345110" />
  <Tmin units="K" value="160" />
  <Tmax units="K" value="1000" />
  </VaporThermalConductivity>
<SurfaceTension name="Surface tension" units="N/m">
  <eqno value="16" />
  <A value="-0.0074449" />
  <B value="194.68" />
  <C value="-5.0277" />
  <D value="0.0075386" />
  <E value="-0.000015012" />
  <Tmin units="K" value="159.95" />
  <Tmax units="K" value="516.78" />
  </SurfaceTension>
<RPPHeatCapacityCp name="Ideal gas heat capacity (RPP)" units="J/kmol/K">
  <eqno value="4" />
  <A value="18723" />
  <B value="294.36" />
  <C value="-0.1308" />
  <D value="0.000019418" />
  <Tmin units="K" value="200" />
  <Tmax units="K" value="1500" />
  </RPPHeatCapacityCp>
<RelativeStaticPermittivity name="Relative static permittivity" units="_">
  <eqno value="120" />
  <A value="-5.047" />
  <B value="-2970" />
  <C value="-17.82" />
  <Tmin units="K" value="270" />
  <Tmax units="K" value="440" />
  </RelativeStaticPermittivity>
<AntoineVaporPressure name="Antoine" units="Pa">
  <eqno value="10" />
  <A value="20.949" />
  <B value="2807" />
  <C value="-42.818" />
  <Tmin units="K" value="322.03" />
  <Tmax units="K" value="477.23" />
  </AntoineVaporPressure>
<LiquidViscosityRPS name="Liquid viscosity (RPS)" units="Pa.s">
  <eqno value="12" />
  <A value="-3.3587" />
  <B value="-0.015176" />
  <Tmin units="K" value="159.95" />
  <Tmax units="K" value="340.87" />
  </LiquidViscosityRPS>
<COSTALDVolume name="COSTLD characteristic volume (V*)" units="m3/kmol" value="0.260086" />
<DiameterLJ name="Lennard Jones diameter" units="m" value="5.842493E-10" />
<EnergyLJ name="Lennard Jones energy" units="K" value="289.6357" />
<RacketParameter name="Rackett parameter" units="_" value="0.264" />
<FullerVolume name="Fuller et al. diffusion volume" units="_" value="83.03201" />
<MatthiasCopemanC2 name="Mathias-Copeman C2" units="_" value="-0.09328" />
<Parachor name="Parachor" units="kg0.25.m3/s0.5/kmol" value="0.0359885" />
<SpecificGravity name="Specific gravity" units="_" value="0.84534" />
<Charge name="Charge" units="_" value="0" />
<CostaldAcentricFactor name="SRK acentric factor" units="_" value="0.225" />
<WilsonVolume name="Wilson volume" units="m3/kmol" value="0.0911676" />
<UniquacR name="UNIQUAC r" units="_" value="3.2265" />
<UniquacQ name="UNIQUAC q" units="_" value="2.756" />
<MatthiasCopemanC3 name="Mathias-Copeman C3" units="_" value="0.326" />
<ChaoSeaderAcentricFactor name="Chao-Seader acentric factor" units="_" value="0.225" />
<ChaoSeaderSolubilityParameter name="Chao-Seader solubility parameter" units="J0.5/m1.5" value="18020" />
<ChaoSeaderLiquidVolume name="Chao-Seader liquid volume" units="m3/kmol" value="0.0911676" />
<UnifacVLE name="UNIFAC">
  <group id="61" value="1" />
  <group id="1" value="1" />
  <group id="2" value="1" />
  </UnifacVLE>
<Asog name="ASOG">
  <group id="1" value="1" />
  <group id="2" value="2" />
  <group id="55" value="1" />
  </Asog>
<GCmethod name="PPR78">
  <group id="1" value="1" />
  <group id="2" value="2" />
  <group id="15" value="1" />
  </GCmethod>
<Umr name="UMR">
  <group id="61" value="1" />
  <group id="1" value="1" />
  <group id="2" value="1" />
  </Umr>
<ModifiedUnifac name="Modified UNIFAC">
  <group id="1" value="1" />
  <group id="2" value="1" />
  <group id="60" value="1" />
  </ModifiedUnifac>
<CAS name="CAS number" value="107-03-9" />
<Smiles name="SMILES" value="CCCS" />
</compound>

