<compound>
<LibraryIndex name="Index" value="1314" />
<CompoundID name="Name" value="n-propyl acetate" />
<StructureFormula name="Structure" value="CH3COO(CH2)2CH3" />
<Family name="Family" value="56" />
<CriticalTemperature name="Critical temperature" units="K" value="549.4" />
<CriticalPressure name="Critical pressure" units="Pa" value="3330000" />
<CriticalVolume name="Critical volume" units="m3/kmol" value="0.345" />
<CriticalCompressibility name="Critical compressibility factor" units="_" value="0.252" />
<NormalBoilingPointTemperature name="Normal boiling point" units="K" value="374.65" />
<NormalMeltingPointTemperature name="Melting point" units="K" value="178.15" />
<TriplePointTemperature name="Triple point temperature" units="K" value="178.15" />
<TriplePointPressure name="Triple point pressure" units="Pa" value="0.0171129" />
<MolecularWeight name="Molecular weight" units="kg/kmol" value="102.1317" />
<LiquidVolumeAtNormalBoilingPoint name="Liquid molar volume at normal boiling point" units="m3/kmol" value="0.11572" />
<AcentricityFactor name="Acentric factor" units="_" value="0.389" />
<RadiusOfGyration name="Radius of gyration" units="m" value="3.969E-10" />
<SolubilityParameter name="Solubility parameter" units="J0.5/m1.5" value="17890" />
<DipoleMoment name="Dipole moment" units="Coulomb.m" value="5.97E-30" />
<VanDerWaalsVolume name="Van der Waals volume" units="m3/kmol" value="0.063" />
<VanDerWaalsArea name="Van der Waals area" units="m2/kmol" value="9.14E+08" />
<HeatOfFormation name="IG heat of formation" units="J/kmol" value="-4.648E+08" />
<GibbsEnergyOfFormation name="IG Gibbs energy of formation" units="J/kmol" value="-3.204E+08" />
<AbsEntropy name="IG absolute entropy" units="J/kmol/K" value="402300" />
<HeatOfFusionAtMeltingPoint name="Heat of fusion at melting point" units="J/kmol" value="1.12E+07" />
<MatthiasCopemanC1 name="Mathias-Copeman C1" units="_" value="1.1143" />
<HeatOfCombustion name="Standard net heat of combustion LHV" units="J/kmol" value="-2.672E+09" />
<SolidDensity name="Solid density" units="kmol/m3">
  <eqno value="2" />
  <A value="12.418" />
  <B value="-0.0076611" />
  <Tmin units="K" value="71.26" />
  <Tmax units="K" value="178.15" />
  </SolidDensity>
<LiquidDensity name="Liquid density" units="kmol/m3">
  <eqno value="105" />
  <A value="0.57751" />
  <B value="0.2255" />
  <C value="549.4" />
  <D value="0.25884" />
  <Tmin units="K" value="178.15" />
  <Tmax units="K" value="549.35" />
  </LiquidDensity>
<VaporPressure name="Vapour pressure" units="Pa">
  <eqno value="101" />
  <A value="106.6613" />
  <B value="-8095.022" />
  <C value="-12.62161" />
  <D value="8.999471E-06" />
  <E value="2" />
  <Tmin units="K" value="178.15" />
  <Tmax units="K" value="549.73" />
  </VaporPressure>
<HeatOfVaporization name="Heat of vaporization" units="J/kmol">
  <eqno value="106" />
  <A value="8.047503E+07" />
  <B value="1.798019" />
  <C value="-2.259874" />
  <D value="1.293466" />
  <E value="-0.333711" />
  <Tmin units="K" value="178.15" />
  <Tmax units="K" value="549.35" />
  </HeatOfVaporization>
<SolidHeatCapacityCp name="Solid heat capacity" units="J/kmol/K">
  <eqno value="1" />
  <A value="156890" />
  <Tmin units="K" value="298" />
  <Tmax units="K" value="0" />
  </SolidHeatCapacityCp>
<LiquidHeatCapacityCp name="Liquid heat capacity" units="J/kmol/K">
  <eqno value="16" />
  <A value="124410" />
  <B value="36.932" />
  <C value="8.3883" />
  <D value="0.012662" />
  <E value="-0.000012028" />
  <Tmin units="K" value="192.29" />
  <Tmax units="K" value="404.7" />
  </LiquidHeatCapacityCp>
<IdealGasHeatCapacityCp name="Ideal gas heat capacity" units="J/kmol/K">
  <eqno value="16" />
  <A value="108820" />
  <B value="-937.38" />
  <C value="13.511" />
  <D value="-0.00062962" />
  <E value="1.4249E-07" />
  <Tmin units="K" value="246.45" />
  <Tmax units="K" value="1500" />
  </IdealGasHeatCapacityCp>
<SecondVirialCoefficient name="Second virial coefficient" units="m3/kmol">
  <eqno value="104" />
  <A value="0.18145" />
  <B value="-204.54" />
  <C value="-46.716" />
  <D value="-11288" />
  <E value="16065" />
  <Tmin units="K" value="274.7" />
  <Tmax units="K" value="1922.9" />
  </SecondVirialCoefficient>
<LiquidViscosity name="Liquid viscosity" units="Pa.s">
  <eqno value="101" />
  <A value="15.453" />
  <B value="-157.9" />
  <C value="-3.9304" />
  <D value="-3.2102E-07" />
  <E value="2" />
  <Tmin units="K" value="250" />
  <Tmax units="K" value="473.15" />
  </LiquidViscosity>
<VaporViscosity name="Vapour viscosity" units="Pa.s">
  <eqno value="102" />
  <A value="1.9633E-07" />
  <B value="0.69295" />
  <C value="104.27" />
  <D value="10438" />
  <Tmin units="K" value="178.15" />
  <Tmax units="K" value="1000" />
  </VaporViscosity>
<LiquidThermalConductivity name="Liquid thermal conductivity" units="W/m/K">
  <eqno value="16" />
  <A value="0.045513" />
  <B value="-31.328" />
  <C value="-1.5572" />
  <D value="-0.00066538" />
  <E value="-0.0000053334" />
  <Tmin units="K" value="164.82" />
  <Tmax units="K" value="434.82" />
  </LiquidThermalConductivity>
<VaporThermalConductivity name="Vapour thermal conductivity" units="W/m/K">
  <eqno value="102" />
  <A value="1128.5" />
  <B value="1.014" />
  <C value="1.1605E+10" />
  <D value="-1.2869E+11" />
  <Tmin units="K" value="178.15" />
  <Tmax units="K" value="1000" />
  </VaporThermalConductivity>
<SurfaceTension name="Surface tension" units="N/m">
  <eqno value="16" />
  <A value="-0.012713" />
  <B value="36.014" />
  <C value="-3.0794" />
  <D value="0.00042548" />
  <E value="-0.0000053616" />
  <Tmin units="K" value="178.15" />
  <Tmax units="K" value="530.17" />
  </SurfaceTension>
<RPPHeatCapacityCp name="Ideal gas heat capacity (RPP)" units="J/kmol/K">
  <eqno value="4" />
  <A value="10223" />
  <B value="486.13" />
  <C value="-0.25647" />
  <D value="0.000046499" />
  <Tmin units="K" value="298.15" />
  <Tmax units="K" value="1500" />
  </RPPHeatCapacityCp>
<RelativeStaticPermittivity name="Relative static permittivity" units="_">
  <eqno value="120" />
  <A value="-5.185871" />
  <B value="-3150" />
  <C value="-18.9" />
  <Tmin units="K" value="154" />
  <Tmax units="K" value="444.15" />
  </RelativeStaticPermittivity>
<AntoineVaporPressure name="Antoine" units="Pa">
  <eqno value="10" />
  <A value="21.084" />
  <B value="2976" />
  <C value="-63.384" />
  <Tmin units="K" value="331.31" />
  <Tmax units="K" value="493.15" />
  </AntoineVaporPressure>
<LiquidViscosityRPS name="Liquid viscosity (RPS)" units="Pa.s">
  <eqno value="13" />
  <A value="-3.1165" />
  <B value="-0.017929" />
  <C value="0.000010882" />
  <Tmin units="K" value="250" />
  <Tmax units="K" value="473.15" />
  </LiquidViscosityRPS>
<COSTALDVolume name="COSTLD characteristic volume (V*)" units="m3/kmol" value="0.34279" />
<DiameterLJ name="Lennard Jones diameter" units="m" value="6.841805E-10" />
<EnergyLJ name="Lennard Jones energy" units="K" value="251.0983" />
<FullerVolume name="Fuller et al. diffusion volume" units="_" value="114.82" />
<MatthiasCopemanC2 name="Mathias-Copeman C2" units="_" value="-0.46308" />
<Parachor name="Parachor" units="kg0.25.m3/s0.5/kmol" value="0.0454" />
<SpecificGravity name="Specific gravity" units="_" value="0.892752" />
<Charge name="Charge" units="_" value="0" />
<CostaldAcentricFactor name="SRK acentric factor" units="_" value="0.391" />
<WilsonVolume name="Wilson volume" units="m3/kmol" value="0.115712" />
<UniquacR name="UNIQUAC r" units="_" value="4.153" />
<UniquacQ name="UNIQUAC q" units="_" value="3.656" />
<MatthiasCopemanC3 name="Mathias-Copeman C3" units="_" value="1.147" />
<ChaoSeaderAcentricFactor name="Chao-Seader acentric factor" units="_" value="0.391" />
<ChaoSeaderSolubilityParameter name="Chao-Seader solubility parameter" units="J0.5/m1.5" value="18004.7" />
<ChaoSeaderLiquidVolume name="Chao-Seader liquid volume" units="m3/kmol" value="0.115712" />
<UnifacVLE name="UNIFAC">
  <group id="1" value="1" />
  <group id="2" value="2" />
  <group id="22" value="1" />
  </UnifacVLE>
<UnifacLLE name="UNIFAC-LLE">
  <group id="1" value="1" />
  <group id="2" value="2" />
  <group id="25" value="1" />
  </UnifacLLE>
<Asog name="ASOG">
  <group id="1" value="2" />
  <group id="2" value="2" />
  <group id="22" value="1" />
  </Asog>
<Umr name="UMR">
  <group id="1" value="1" />
  <group id="2" value="2" />
  <group id="22" value="1" />
  </Umr>
<ModifiedUnifac name="Modified UNIFAC">
  <group id="1" value="1" />
  <group id="2" value="2" />
  <group id="21" value="1" />
  </ModifiedUnifac>
<CAS name="CAS number" value="109-60-4" />
<Smiles name="SMILES" value="CC(=O)OCCC" />
</compound>

