<compound>
<LibraryIndex name="Index" value="1303" />
<CompoundID name="Name" value="n-propyl formate" />
<StructureFormula name="Structure" value="HCOOCH2CH2CH3" />
<Family name="Family" value="55" />
<CriticalTemperature name="Critical temperature" units="K" value="538" />
<CriticalPressure name="Critical pressure" units="Pa" value="4060000" />
<CriticalVolume name="Critical volume" units="m3/kmol" value="0.285" />
<CriticalCompressibility name="Critical compressibility factor" units="_" value="0.259" />
<NormalBoilingPointTemperature name="Normal boiling point" units="K" value="354.69" />
<NormalMeltingPointTemperature name="Melting point" units="K" value="180.25" />
<TriplePointTemperature name="Triple point temperature" units="K" value="180.25" />
<TriplePointPressure name="Triple point pressure" units="Pa" value="0.211011" />
<MolecularWeight name="Molecular weight" units="kg/kmol" value="88.10513" />
<LiquidVolumeAtNormalBoilingPoint name="Liquid molar volume at normal boiling point" units="m3/kmol" value="0.09794" />
<AcentricityFactor name="Acentric factor" units="_" value="0.32" />
<RadiusOfGyration name="Radius of gyration" units="m" value="3.364E-10" />
<SolubilityParameter name="Solubility parameter" units="J0.5/m1.5" value="18470" />
<DipoleMoment name="Dipole moment" units="Coulomb.m" value="6.37E-30" />
<VanDerWaalsVolume name="Van der Waals volume" units="m3/kmol" value="0.05297" />
<VanDerWaalsArea name="Van der Waals area" units="m2/kmol" value="7.79E+08" />
<HeatOfFormation name="IG heat of formation" units="J/kmol" value="-4.076E+08" />
<GibbsEnergyOfFormation name="IG Gibbs energy of formation" units="J/kmol" value="-2.936E+08" />
<AbsEntropy name="IG absolute entropy" units="J/kmol/K" value="367800" />
<HeatOfFusionAtMeltingPoint name="Heat of fusion at melting point" units="J/kmol" value="1.32E+07" />
<MatthiasCopemanC1 name="Mathias-Copeman C1" units="_" value="0.91319" />
<HeatOfCombustion name="Standard net heat of combustion LHV" units="J/kmol" value="-2.041E+09" />
<SolidDensity name="Solid density" units="kmol/m3">
  <eqno value="2" />
  <A value="14.696" />
  <B value="-0.0089769" />
  <Tmin units="K" value="72.1" />
  <Tmax units="K" value="180.25" />
  </SolidDensity>
<LiquidDensity name="Liquid density" units="kmol/m3">
  <eqno value="105" />
  <A value="0.915" />
  <B value="0.26134" />
  <C value="538" />
  <D value="0.28" />
  <Tmin units="K" value="180.25" />
  <Tmax units="K" value="538" />
  </LiquidDensity>
<VaporPressure name="Vapour pressure" units="Pa">
  <eqno value="101" />
  <A value="71.35267" />
  <B value="-6244.56" />
  <C value="-7.280094" />
  <D value="4.220422E-06" />
  <E value="2" />
  <Tmin units="K" value="180.25" />
  <Tmax units="K" value="538" />
  </VaporPressure>
<HeatOfVaporization name="Heat of vaporization" units="J/kmol">
  <eqno value="106" />
  <A value="5.414398E+07" />
  <B value="0.597341" />
  <C value="-0.589234" />
  <D value="1.004533" />
  <E value="-0.602007" />
  <Tmin units="K" value="180.25" />
  <Tmax units="K" value="538" />
  </HeatOfVaporization>
<SolidHeatCapacityCp name="Solid heat capacity" units="J/kmol/K">
  <eqno value="1" />
  <A value="130880" />
  <Tmin units="K" value="0" />
  <Tmax units="K" value="0" />
  </SolidHeatCapacityCp>
<LiquidHeatCapacityCp name="Liquid heat capacity" units="J/kmol/K">
  <eqno value="16" />
  <A value="76453" />
  <B value="-41.853" />
  <C value="10.797" />
  <D value="0.0021776" />
  <E value="0.0000016375" />
  <Tmin units="K" value="188.3" />
  <Tmax units="K" value="433.3" />
  </LiquidHeatCapacityCp>
<IdealGasHeatCapacityCp name="Ideal gas heat capacity" units="J/kmol/K">
  <eqno value="16" />
  <A value="48655" />
  <B value="-455.54" />
  <C value="12.53" />
  <D value="0.000075917" />
  <E value="-4.246E-09" />
  <Tmin units="K" value="298.15" />
  <Tmax units="K" value="1500" />
  </IdealGasHeatCapacityCp>
<SecondVirialCoefficient name="Second virial coefficient" units="m3/kmol">
  <eqno value="104" />
  <A value="0.15811" />
  <B value="-174.27" />
  <C value="-31.648" />
  <D value="-4516.6" />
  <E value="3566.6" />
  <Tmin units="K" value="269" />
  <Tmax units="K" value="1883" />
  </SecondVirialCoefficient>
<LiquidViscosity name="Liquid viscosity" units="Pa.s">
  <eqno value="101" />
  <A value="-51.649" />
  <B value="2317.7" />
  <C value="6.5556" />
  <D value="-0.000012396" />
  <E value="2" />
  <Tmin units="K" value="180.25" />
  <Tmax units="K" value="438" />
  </LiquidViscosity>
<VaporViscosity name="Vapour viscosity" units="Pa.s">
  <eqno value="102" />
  <A value="6.0899E-07" />
  <B value="0.58607" />
  <C value="368.57" />
  <D value="-171.06" />
  <Tmin units="K" value="180.25" />
  <Tmax units="K" value="1000" />
  </VaporViscosity>
<LiquidThermalConductivity name="Liquid thermal conductivity" units="W/m/K">
  <eqno value="16" />
  <A value="0.017242" />
  <B value="-22.474" />
  <C value="-1.4478" />
  <D value="-0.0011278" />
  <E value="-0.0000020716" />
  <Tmin units="K" value="180" />
  <Tmax units="K" value="483.15" />
  </LiquidThermalConductivity>
<VaporThermalConductivity name="Vapour thermal conductivity" units="W/m/K">
  <eqno value="102" />
  <A value="661.08" />
  <B value="0.99232" />
  <C value="5.8449E+09" />
  <D value="-9.0597E+10" />
  <Tmin units="K" value="180.25" />
  <Tmax units="K" value="1000" />
  </VaporThermalConductivity>
<SurfaceTension name="Surface tension" units="N/m">
  <eqno value="16" />
  <A value="-0.017831" />
  <B value="28.209" />
  <C value="-2.943" />
  <D value="0.00018306" />
  <E value="-0.0000042883" />
  <Tmin units="K" value="180.25" />
  <Tmax units="K" value="538" />
  </SurfaceTension>
<RPPHeatCapacityCp name="Ideal gas heat capacity (RPP)" units="J/kmol/K">
  <eqno value="4" />
  <A value="-1865.2" />
  <B value="457.73" />
  <C value="-0.29209" />
  <D value="0.000073654" />
  <Tmin units="K" value="298.15" />
  <Tmax units="K" value="1500" />
  </RPPHeatCapacityCp>
<RelativeStaticPermittivity name="Relative static permittivity" units="_">
  <eqno value="120" />
  <A value="-6.820192" />
  <B value="-3950" />
  <C value="-23.7" />
  <Tmin units="K" value="273.0389" />
  <Tmax units="K" value="443.0389" />
  </RelativeStaticPermittivity>
<AntoineVaporPressure name="Antoine" units="Pa">
  <eqno value="10" />
  <A value="21.052" />
  <B value="2837.7" />
  <C value="-56.289" />
  <Tmin units="K" value="322.95" />
  <Tmax units="K" value="483.15" />
  </AntoineVaporPressure>
<LiquidViscosityRPS name="Liquid viscosity (RPS)" units="Pa.s">
  <eqno value="13" />
  <A value="1.9885" />
  <B value="-0.052442" />
  <C value="0.000067436" />
  <Tmin units="K" value="180.25" />
  <Tmax units="K" value="353.97" />
  </LiquidViscosityRPS>
<COSTALDVolume name="COSTLD characteristic volume (V*)" units="m3/kmol" value="0.28231" />
<DiameterLJ name="Lennard Jones diameter" units="m" value="6.21203E-10" />
<EnergyLJ name="Lennard Jones energy" units="K" value="271.378" />
<FullerVolume name="Fuller et al. diffusion volume" units="_" value="94.3" />
<MatthiasCopemanC2 name="Mathias-Copeman C2" units="_" value="0.32658" />
<Parachor name="Parachor" units="kg0.25.m3/s0.5/kmol" value="0.0387" />
<SpecificGravity name="Specific gravity" units="_" value="0.910145" />
<Charge name="Charge" units="_" value="0" />
<CostaldAcentricFactor name="SRK acentric factor" units="_" value="0.314" />
<WilsonVolume name="Wilson volume" units="m3/kmol" value="0.0979424" />
<UniquacR name="UNIQUAC r" units="_" value="3.4919" />
<UniquacQ name="UNIQUAC q" units="_" value="3.116" />
<MatthiasCopemanC3 name="Mathias-Copeman C3" units="_" value="-0.58645" />
<ChaoSeaderAcentricFactor name="Chao-Seader acentric factor" units="_" value="0.314" />
<ChaoSeaderSolubilityParameter name="Chao-Seader solubility parameter" units="J0.5/m1.5" value="18339.9" />
<ChaoSeaderLiquidVolume name="Chao-Seader liquid volume" units="m3/kmol" value="0.0979424" />
<UnifacVLE name="UNIFAC">
  <group id="1" value="1" />
  <group id="2" value="2" />
  <group id="24" value="1" />
  </UnifacVLE>
<Asog name="ASOG">
  <group id="1" value="1" />
  <group id="2" value="2" />
  <group id="23" value="1" />
  </Asog>
<Umr name="UMR">
  <group id="1" value="1" />
  <group id="2" value="2" />
  <group id="24" value="1" />
  </Umr>
<ModifiedUnifac name="Modified UNIFAC">
  <group id="1" value="1" />
  <group id="2" value="2" />
  <group id="23" value="1" />
  </ModifiedUnifac>
<CAS name="CAS number" value="110-74-7" />
<Smiles name="SMILES" value="CCCOC(=O)" />
</compound>

