<compound>
<LibraryIndex name="Index" value="77" />
<CompoundID name="Name" value="n-tetracosane" />
<StructureFormula name="Structure" value="CH3(CH2)22CH3" />
<Family name="Family" value="1" />
<CriticalTemperature name="Critical temperature" units="K" value="804" />
<CriticalPressure name="Critical pressure" units="Pa" value="980000" />
<CriticalVolume name="Critical volume" units="m3/kmol" value="1.41" />
<CriticalCompressibility name="Critical compressibility factor" units="_" value="0.206707" />
<NormalBoilingPointTemperature name="Normal boiling point" units="K" value="664.45" />
<NormalMeltingPointTemperature name="Melting point" units="K" value="324.05" />
<TriplePointTemperature name="Triple point temperature" units="K" value="323.75" />
<TriplePointPressure name="Triple point pressure" units="Pa" value="0.00138507" />
<MolecularWeight name="Molecular weight" units="kg/kmol" value="338.6538" />
<LiquidVolumeAtNormalBoilingPoint name="Liquid molar volume at normal boiling point" units="m3/kmol" value="0.426088" />
<AcentricityFactor name="Acentric factor" units="_" value="1.07102" />
<RadiusOfGyration name="Radius of gyration" units="m" value="9.321E-10" />
<SolubilityParameter name="Solubility parameter" units="J0.5/m1.5" value="15800" />
<DipoleMoment name="Dipole moment" units="Coulomb.m" value="0" />
<VanDerWaalsVolume name="Van der Waals volume" units="m3/kmol" value="0.2524" />
<VanDerWaalsArea name="Van der Waals area" units="m2/kmol" value="3.394E+09" />
<HeatOfFormation name="IG heat of formation" units="J/kmol" value="-5.4E+08" />
<GibbsEnergyOfFormation name="IG Gibbs energy of formation" units="J/kmol" value="1.472E+08" />
<AbsEntropy name="IG absolute entropy" units="J/kmol/K" value="1097000" />
<HeatOfFusionAtMeltingPoint name="Heat of fusion at melting point" units="J/kmol" value="5.4894E+07" />
<MatthiasCopemanC1 name="Mathias-Copeman C1" units="_" value="1.912905" />
<HeatOfCombustion name="Standard net heat of combustion LHV" units="J/kmol" value="-1.479E+10" />
<SolidDensity name="Solid density" units="kmol/m3">
  <eqno value="2" />
  <A value="2.705" />
  <B value="-0.000046396" />
  <C value="0" />
  <D value="0" />
  <E value="0" />
  <Tmin units="K" value="0" />
  <Tmax units="K" value="323.75" />
  </SolidDensity>
<LiquidDensity name="Liquid density" units="kmol/m3">
  <eqno value="105" />
  <A value="0.013821" />
  <B value="0.07087" />
  <C value="810" />
  <D value="0.13885" />
  <Tmin units="K" value="273.15" />
  <Tmax units="K" value="804" />
  </LiquidDensity>
<VaporPressure name="Vapour pressure" units="Pa">
  <eqno value="101" />
  <A value="118.4643" />
  <B value="-17014.83" />
  <C value="-12.51446" />
  <D value="1.109888E-07" />
  <E value="2" />
  <Tmin units="K" value="323.75" />
  <Tmax units="K" value="804" />
  </VaporPressure>
<HeatOfVaporization name="Heat of vaporization" units="J/kmol">
  <eqno value="106" />
  <A value="1.5462E+08" />
  <B value="0.24892" />
  <C value="1.8808" />
  <D value="-2.829" />
  <E value="1.1319" />
  <Tmin units="K" value="323.75" />
  <Tmax units="K" value="804" />
  </HeatOfVaporization>
<SolidHeatCapacityCp name="Solid heat capacity" units="J/kmol/K">
  <eqno value="100" />
  <A value="-127900" />
  <B value="6840.6" />
  <C value="-42.334" />
  <D value="0.13573" />
  <E value="-0.00013432" />
  <Tmin units="K" value="80" />
  <Tmax units="K" value="290" />
  </SolidHeatCapacityCp>
<LiquidHeatCapacityCp name="Liquid heat capacity" units="J/kmol/K">
  <eqno value="16" />
  <A value="397960" />
  <B value="-97.814" />
  <C value="12.108" />
  <D value="0.0038156" />
  <E value="-0.0000022229" />
  <Tmin units="K" value="323.75" />
  <Tmax units="K" value="664.45" />
  </LiquidHeatCapacityCp>
<IdealGasHeatCapacityCp name="Ideal gas heat capacity" units="J/kmol/K">
  <eqno value="16" />
  <A value="318880" />
  <B value="-569.39" />
  <C value="14.249" />
  <D value="0.00012213" />
  <E value="-4.6983E-08" />
  <Tmin units="K" value="273" />
  <Tmax units="K" value="1500" />
  </IdealGasHeatCapacityCp>
<SecondVirialCoefficient name="Second virial coefficient" units="m3/kmol">
  <eqno value="104" />
  <A value="0.66108" />
  <B value="-157.86" />
  <C value="-1201.7" />
  <D value="-2514500" />
  <E value="5035800" />
  <Tmin units="K" value="402" />
  <Tmax units="K" value="1500" />
  </SecondVirialCoefficient>
<LiquidViscosity name="Liquid viscosity" units="Pa.s">
  <eqno value="101" />
  <A value="-64.748" />
  <B value="4433" />
  <C value="8.0272" />
  <D value="-0.0000059771" />
  <E value="2" />
  <Tmin units="K" value="323.75" />
  <Tmax units="K" value="804" />
  </LiquidViscosity>
<VaporViscosity name="Vapour viscosity" units="Pa.s">
  <eqno value="102" />
  <A value="2.9788E-07" />
  <B value="0.59708" />
  <C value="514.64" />
  <D value="49388" />
  <Tmin units="K" value="323.75" />
  <Tmax units="K" value="1000" />
  </VaporViscosity>
<LiquidThermalConductivity name="Liquid thermal conductivity" units="W/m/K">
  <eqno value="16" />
  <A value="0.046069" />
  <B value="-245.01" />
  <C value="-0.62562" />
  <D value="-0.0019192" />
  <E value="-0.0000023135" />
  <Tmin units="K" value="323.15" />
  <Tmax units="K" value="683.15" />
  </LiquidThermalConductivity>
<VaporThermalConductivity name="Vapour thermal conductivity" units="W/m/K">
  <eqno value="102" />
  <A value="-232.02" />
  <B value="1.063" />
  <C value="-5.6529E+09" />
  <D value="-8.4042E+10" />
  <Tmin units="K" value="323.75" />
  <Tmax units="K" value="1000" />
  </VaporThermalConductivity>
<SurfaceTension name="Surface tension" units="N/m">
  <eqno value="16" />
  <A value="-0.087025" />
  <B value="-29.702" />
  <C value="-1.7009" />
  <D value="-0.0013432" />
  <E value="5.7868E-07" />
  <Tmin units="K" value="323.75" />
  <Tmax units="K" value="804" />
  </SurfaceTension>
<RPPHeatCapacityCp name="Ideal gas heat capacity (RPP)" units="J/kmol/K">
  <eqno value="4" />
  <A value="-18646" />
  <B value="2279.4" />
  <C value="-1.2759" />
  <D value="0.0002759" />
  <Tmin units="K" value="300" />
  <Tmax units="K" value="1500" />
  </RPPHeatCapacityCp>
<AntoineVaporPressure name="Antoine" units="Pa">
  <eqno value="10" />
  <A value="21.919" />
  <B value="5413.7" />
  <C value="-142.61" />
  <Tmin units="K" value="487.25" />
  <Tmax units="K" value="728.17" />
  </AntoineVaporPressure>
<LiquidViscosityRPS name="Liquid viscosity (RPS)" units="Pa.s">
  <eqno value="12" />
  <A value="-3.2184" />
  <B value="-0.0080348" />
  <Tmin units="K" value="323.75" />
  <Tmax units="K" value="793.15" />
  </LiquidViscosityRPS>
<COSTALDVolume name="COSTLD characteristic volume (V*)" units="m3/kmol" value="1.715072" />
<DiameterLJ name="Lennard Jones diameter" units="m" value="1.368548E-09" />
<EnergyLJ name="Lennard Jones energy" units="K" value="182.344" />
<RacketParameter name="Rackett parameter" units="_" value="0.228598" />
<FullerVolume name="Fuller et al. diffusion volume" units="_" value="497.1" />
<MatthiasCopemanC2 name="Mathias-Copeman C2" units="_" value="0" />
<Parachor name="Parachor" units="kg0.25.m3/s0.5/kmol" value="0.173787" />
<SpecificGravity name="Specific gravity" units="_" value="0.797216" />
<Charge name="Charge" units="_" value="0" />
<CostaldAcentricFactor name="SRK acentric factor" units="_" value="1.07102" />
<WilsonVolume name="Wilson volume" units="m3/kmol" value="0.426088" />
<UniquacR name="UNIQUAC r" units="_" value="16.639" />
<UniquacQ name="UNIQUAC q" units="_" value="13.576" />
<MatthiasCopemanC3 name="Mathias-Copeman C3" units="_" value="0" />
<ChaoSeaderAcentricFactor name="Chao-Seader acentric factor" units="_" value="1.07102" />
<ChaoSeaderSolubilityParameter name="Chao-Seader solubility parameter" units="J0.5/m1.5" value="15800" />
<ChaoSeaderLiquidVolume name="Chao-Seader liquid volume" units="m3/kmol" value="0.426088" />
<UnifacVLE name="UNIFAC">
  <group id="1" value="2" />
  <group id="2" value="22" />
  </UnifacVLE>
<UnifacLLE name="UNIFAC-LLE">
  <group id="1" value="2" />
  <group id="2" value="22" />
  </UnifacLLE>
<Asog name="ASOG">
  <group id="1" value="2" />
  <group id="2" value="22" />
  </Asog>
<GCmethod name="PPR78">
  <group id="1" value="2" />
  <group id="2" value="22" />
  </GCmethod>
<Umr name="UMR">
  <group id="1" value="2" />
  <group id="2" value="22" />
  </Umr>
<ModifiedUnifac name="Modified UNIFAC">
  <group id="1" value="2" />
  <group id="2" value="22" />
  </ModifiedUnifac>
<CAS name="CAS number" value="646-31-1" />
<Smiles name="SMILES" value="CCCCCCCCCCCCCCCCCCCCCCCC" />
</compound>

