<compound>
<LibraryIndex name="Index" value="63" />
<CompoundID name="Name" value="n-undecane" />
<StructureFormula name="Structure" value="CH3(CH2)9CH3" />
<Family name="Family" value="1" />
<CriticalTemperature name="Critical temperature" units="K" value="639" />
<CriticalPressure name="Critical pressure" units="Pa" value="1980000" />
<CriticalVolume name="Critical volume" units="m3/kmol" value="0.689" />
<CriticalCompressibility name="Critical compressibility factor" units="_" value="0.257" />
<NormalBoilingPointTemperature name="Normal boiling point" units="K" value="469.08" />
<NormalMeltingPointTemperature name="Melting point" units="K" value="247.571" />
<TriplePointTemperature name="Triple point temperature" units="K" value="247.571" />
<TriplePointPressure name="Triple point pressure" units="Pa" value="0.408414" />
<MolecularWeight name="Molecular weight" units="kg/kmol" value="156.3083" />
<LiquidVolumeAtNormalBoilingPoint name="Liquid molar volume at normal boiling point" units="m3/kmol" value="0.21224" />
<AcentricityFactor name="Acentric factor" units="_" value="0.538" />
<RadiusOfGyration name="Radius of gyration" units="m" value="5.496E-10" />
<SolubilityParameter name="Solubility parameter" units="J0.5/m1.5" value="15880" />
<DipoleMoment name="Dipole moment" units="Coulomb.m" value="0" />
<VanDerWaalsVolume name="Van der Waals volume" units="m3/kmol" value="0.1194" />
<VanDerWaalsArea name="Van der Waals area" units="m2/kmol" value="1.639E+09" />
<HeatOfFormation name="IG heat of formation" units="J/kmol" value="-2.7043E+08" />
<GibbsEnergyOfFormation name="IG Gibbs energy of formation" units="J/kmol" value="4.116E+07" />
<AbsEntropy name="IG absolute entropy" units="J/kmol/K" value="584930" />
<HeatOfFusionAtMeltingPoint name="Heat of fusion at melting point" units="J/kmol" value="2.218E+07" />
<MatthiasCopemanC1 name="Mathias-Copeman C1" units="_" value="1.3766" />
<HeatOfCombustion name="Standard net heat of combustion LHV" units="J/kmol" value="-6.9036E+09" />
<SolidDensity name="Solid density" units="kmol/m3">
  <eqno value="2" />
  <A value="6.2757" />
  <B value="-0.0028242" />
  <Tmin units="K" value="99.03" />
  <Tmax units="K" value="247.57" />
  </SolidDensity>
<LiquidDensity name="Liquid density" units="kmol/m3">
  <eqno value="105" />
  <A value="0.36785" />
  <B value="0.24938" />
  <C value="639" />
  <D value="0.28395" />
  <Tmin units="K" value="247.57" />
  <Tmax units="K" value="639" />
  </LiquidDensity>
<VaporPressure name="Vapour pressure" units="Pa">
  <eqno value="101" />
  <A value="128.8551" />
  <B value="-11029.21" />
  <C value="-15.54009" />
  <D value="8.030888E-06" />
  <E value="2" />
  <Tmin units="K" value="247.57" />
  <Tmax units="K" value="639" />
  </VaporPressure>
<HeatOfVaporization name="Heat of vaporization" units="J/kmol">
  <eqno value="106" />
  <A value="8.9735E+07" />
  <B value="0.81788" />
  <C value="0.31647" />
  <D value="-1.4781" />
  <E value="0.80673" />
  <Tmin units="K" value="247.57" />
  <Tmax units="K" value="639" />
  </HeatOfVaporization>
<SolidHeatCapacityCp name="Solid heat capacity" units="J/kmol/K">
  <eqno value="100" />
  <A value="-39053" />
  <B value="2684.8" />
  <C value="-12.418" />
  <D value="0.023835" />
  <E value="0.000012675" />
  <Tmin units="K" value="28.87" />
  <Tmax units="K" value="214.07" />
  </SolidHeatCapacityCp>
<LiquidHeatCapacityCp name="Liquid heat capacity" units="J/kmol/K">
  <eqno value="16" />
  <A value="208030" />
  <B value="521.1" />
  <C value="6.1551" />
  <D value="0.017086" />
  <E value="-0.000013175" />
  <Tmin units="K" value="247.57" />
  <Tmax units="K" value="433.42" />
  </LiquidHeatCapacityCp>
<IdealGasHeatCapacityCp name="Ideal gas heat capacity" units="J/kmol/K">
  <eqno value="16" />
  <A value="177700" />
  <B value="-730.83" />
  <C value="13.81" />
  <D value="-0.00021088" />
  <E value="5.7776E-08" />
  <Tmin units="K" value="200" />
  <Tmax units="K" value="1500" />
  </IdealGasHeatCapacityCp>
<SecondVirialCoefficient name="Second virial coefficient" units="m3/kmol">
  <eqno value="104" />
  <A value="0.60629" />
  <B value="-760.54" />
  <C value="-75.703" />
  <D value="-307370" />
  <E value="805010" />
  <Tmin units="K" value="319" />
  <Tmax units="K" value="1500" />
  </SecondVirialCoefficient>
<LiquidViscosity name="Liquid viscosity" units="Pa.s">
  <eqno value="101" />
  <A value="-92.575" />
  <B value="4408.9" />
  <C value="12.698" />
  <D value="-0.000015556" />
  <E value="2" />
  <Tmin units="K" value="247.57" />
  <Tmax units="K" value="639" />
  </LiquidViscosity>
<VaporViscosity name="Vapour viscosity" units="Pa.s">
  <eqno value="102" />
  <A value="2.9213E-08" />
  <B value="0.9335" />
  <C value="118.62" />
  <D value="-4363.8" />
  <Tmin units="K" value="247.57" />
  <Tmax units="K" value="1000" />
  </VaporViscosity>
<LiquidThermalConductivity name="Liquid thermal conductivity" units="W/m/K">
  <eqno value="16" />
  <A value="0.015185" />
  <B value="-212.29" />
  <C value="-0.044539" />
  <D value="-0.0049614" />
  <E value="0.0000013629" />
  <Tmin units="K" value="247.57" />
  <Tmax units="K" value="469.08" />
  </LiquidThermalConductivity>
<VaporThermalConductivity name="Vapour thermal conductivity" units="W/m/K">
  <eqno value="102" />
  <A value="0.037608" />
  <B value="0.6852" />
  <C value="33443" />
  <D value="9124600" />
  <Tmin units="K" value="247.571" />
  <Tmax units="K" value="1000" />
  </VaporThermalConductivity>
<SurfaceTension name="Surface tension" units="N/m">
  <eqno value="16" />
  <A value="-0.099094" />
  <B value="-34.281" />
  <C value="-1.5565" />
  <D value="-0.0016817" />
  <E value="9.0654E-07" />
  <Tmin units="K" value="247.57" />
  <Tmax units="K" value="639" />
  </SurfaceTension>
<RPPHeatCapacityCp name="Ideal gas heat capacity (RPP)" units="J/kmol/K">
  <eqno value="4" />
  <A value="-11238.22" />
  <B value="1067.841" />
  <C value="-0.600948" />
  <D value="0.000132394" />
  <Tmin units="K" value="200" />
  <Tmax units="K" value="1500" />
  </RPPHeatCapacityCp>
<RelativeStaticPermittivity name="Relative static permittivity" units="_">
  <eqno value="120" />
  <A value="-1.4825" />
  <B value="-1000" />
  <C value="-6" />
  <Tmin units="K" value="274.15" />
  <Tmax units="K" value="444.15" />
  </RelativeStaticPermittivity>
<AntoineVaporPressure name="Antoine" units="Pa">
  <eqno value="10" />
  <A value="21.005" />
  <B value="3654.7" />
  <C value="-83.504" />
  <Tmin units="K" value="384.11" />
  <Tmax units="K" value="556.59" />
  </AntoineVaporPressure>
<LiquidViscosityRPS name="Liquid viscosity (RPS)" units="Pa.s">
  <eqno value="13" />
  <A value="0.80609" />
  <B value="-0.035059" />
  <C value="0.00003251" />
  <Tmin units="K" value="247.57" />
  <Tmax units="K" value="511.2" />
  </LiquidViscosityRPS>
<COSTALDVolume name="COSTLD characteristic volume (V*)" units="m3/kmol" value="0.684519" />
<DiameterLJ name="Lennard Jones diameter" units="m" value="8.41521E-10" />
<EnergyLJ name="Lennard Jones energy" units="K" value="313.4536" />
<RacketParameter name="Rackett parameter" units="_" value="0.243351" />
<FullerVolume name="Fuller et al. diffusion volume" units="_" value="230.34" />
<MatthiasCopemanC2 name="Mathias-Copeman C2" units="_" value="-0.98384" />
<Parachor name="Parachor" units="kg0.25.m3/s0.5/kmol" value="0.0825" />
<SpecificGravity name="Specific gravity" units="_" value="0.742846" />
<Charge name="Charge" units="_" value="0" />
<CostaldAcentricFactor name="SRK acentric factor" units="_" value="0.5349" />
<WilsonVolume name="Wilson volume" units="m3/kmol" value="0.212215" />
<UniquacR name="UNIQUAC r" units="_" value="7.871799" />
<UniquacQ name="UNIQUAC q" units="_" value="6.556" />
<ApiSrkS2 name="API-SRK s2" units="_" value="-0.012698" />
<MatthiasCopemanC3 name="Mathias-Copeman C3" units="_" value="2.1446" />
<ChaoSeaderAcentricFactor name="Chao-Seader acentric factor" units="_" value="0.521" />
<ChaoSeaderSolubilityParameter name="Chao-Seader solubility parameter" units="J0.5/m1.5" value="15934.45" />
<ChaoSeaderLiquidVolume name="Chao-Seader liquid volume" units="m3/kmol" value="0.2122" />
<UnifacVLE name="UNIFAC">
  <group id="1" value="2" />
  <group id="2" value="9" />
  </UnifacVLE>
<UnifacLLE name="UNIFAC-LLE">
  <group id="1" value="2" />
  <group id="2" value="9" />
  </UnifacLLE>
<Asog name="ASOG">
  <group id="1" value="2" />
  <group id="2" value="9" />
  </Asog>
<GCmethod name="PPR78">
  <group id="1" value="2" />
  <group id="2" value="9" />
  </GCmethod>
<Umr name="UMR">
  <group id="1" value="2" />
  <group id="2" value="9" />
  </Umr>
<ModifiedUnifac name="Modified UNIFAC">
  <group id="1" value="2" />
  <group id="2" value="9" />
  </ModifiedUnifac>
<CAS name="CAS number" value="1120-21-4" />
<Smiles name="SMILES" value="CCCCCCCCCCC" />
</compound>

