<compound>
<LibraryIndex name="Index" value="9" />
<CompoundID name="Name" value="neopentane" />
<StructureFormula name="Structure" value="C(CH3)4" />
<Family name="Family" value="3" />
<CriticalTemperature name="Critical temperature" units="K" value="433.75" />
<CriticalPressure name="Critical pressure" units="Pa" value="3199000" />
<CriticalVolume name="Critical volume" units="m3/kmol" value="0.3032" />
<CriticalCompressibility name="Critical compressibility factor" units="_" value="0.269" />
<NormalBoilingPointTemperature name="Normal boiling point" units="K" value="282.65" />
<NormalMeltingPointTemperature name="Melting point" units="K" value="256.6" />
<TriplePointTemperature name="Triple point temperature" units="K" value="256.6" />
<TriplePointPressure name="Triple point pressure" units="Pa" value="35745.2" />
<MolecularWeight name="Molecular weight" units="kg/kmol" value="72.14878" />
<LiquidVolumeAtNormalBoilingPoint name="Liquid molar volume at normal boiling point" units="m3/kmol" value="0.12216" />
<AcentricityFactor name="Acentric factor" units="_" value="0.197" />
<RadiusOfGyration name="Radius of gyration" units="m" value="3.161E-10" />
<SolubilityParameter name="Solubility parameter" units="J0.5/m1.5" value="12510" />
<DipoleMoment name="Dipole moment" units="Coulomb.m" value="0" />
<VanDerWaalsVolume name="Van der Waals volume" units="m3/kmol" value="0.05801" />
<VanDerWaalsArea name="Van der Waals area" units="m2/kmol" value="8.48E+08" />
<HeatOfFormation name="IG heat of formation" units="J/kmol" value="-1.6807E+08" />
<GibbsEnergyOfFormation name="IG Gibbs energy of formation" units="J/kmol" value="-1.714E+07" />
<AbsEntropy name="IG absolute entropy" units="J/kmol/K" value="305890" />
<HeatOfFusionAtMeltingPoint name="Heat of fusion at melting point" units="J/kmol" value="3146000" />
<MatthiasCopemanC1 name="Mathias-Copeman C1" units="_" value="0.78325" />
<HeatOfCombustion name="Standard net heat of combustion LHV" units="J/kmol" value="-3.25039E+09" />
<SolidDensity name="Solid density" units="kmol/m3">
  <eqno value="2" />
  <A value="11.325" />
  <B value="-0.0069832" />
  <Tmin units="K" value="218.8" />
  <Tmax units="K" value="248.9" />
  </SolidDensity>
<LiquidDensity name="Liquid density" units="kmol/m3">
  <eqno value="105" />
  <A value="0.90246" />
  <B value="0.2775" />
  <C value="433.8" />
  <D value="0.29085" />
  <Tmin units="K" value="256.6" />
  <Tmax units="K" value="433.8" />
  </LiquidDensity>
<VaporPressure name="Vapour pressure" units="Pa">
  <eqno value="101" />
  <A value="85.887" />
  <B value="-5169" />
  <C value="-10.119" />
  <D value="0.000013061" />
  <E value="2" />
  <Tmin units="K" value="246.05" />
  <Tmax units="K" value="433.8" />
  </VaporPressure>
<HeatOfVaporization name="Heat of vaporization" units="J/kmol">
  <eqno value="106" />
  <A value="3.3957E+07" />
  <B value="0.38208" />
  <C value="0" />
  <D value="0" />
  <E value="0" />
  <Tmin units="K" value="256.6" />
  <Tmax units="K" value="433.8" />
  </HeatOfVaporization>
<SolidHeatCapacityCp name="Solid heat capacity" units="J/kmol/K">
  <eqno value="100" />
  <A value="-30040" />
  <B value="2752.6" />
  <C value="-37.153" />
  <D value="0.25213" />
  <E value="-0.00053456" />
  <Tmin units="K" value="20.16" />
  <Tmax units="K" value="139.34" />
  </SolidHeatCapacityCp>
<LiquidHeatCapacityCp name="Liquid heat capacity" units="J/kmol/K">
  <eqno value="16" />
  <A value="116590" />
  <B value="146.32" />
  <C value="1.9197" />
  <D value="0.044936" />
  <E value="-0.000054657" />
  <Tmin units="K" value="256.6" />
  <Tmax units="K" value="288.71" />
  </LiquidHeatCapacityCp>
<IdealGasHeatCapacityCp name="Ideal gas heat capacity" units="J/kmol/K">
  <eqno value="16" />
  <A value="31525" />
  <B value="-309.56" />
  <C value="12.21" />
  <D value="0.00085791" />
  <E value="-2.6395E-07" />
  <Tmin units="K" value="200" />
  <Tmax units="K" value="1500" />
  </IdealGasHeatCapacityCp>
<SecondVirialCoefficient name="Second virial coefficient" units="m3/kmol">
  <eqno value="104" />
  <A value="0.17011" />
  <B value="-163.18" />
  <C value="-15.199" />
  <D value="1090.5" />
  <E value="-2506.9" />
  <Tmin units="K" value="216.87" />
  <Tmax units="K" value="1951.87" />
  </SecondVirialCoefficient>
<LiquidViscosity name="Liquid viscosity" units="Pa.s">
  <eqno value="101" />
  <A value="-36.861" />
  <B value="2459.5" />
  <C value="3.4416" />
  <D value="0.0000070474" />
  <E value="2" />
  <Tmin units="K" value="256.6" />
  <Tmax units="K" value="333" />
  </LiquidViscosity>
<VaporViscosity name="Vapour viscosity" units="Pa.s">
  <eqno value="102" />
  <A value="8.1019E-07" />
  <B value="0.5294" />
  <C value="468.47" />
  <D value="-22580" />
  <Tmin units="K" value="250" />
  <Tmax units="K" value="1000" />
  </VaporViscosity>
<LiquidThermalConductivity name="Liquid thermal conductivity" units="W/m/K">
  <eqno value="16" />
  <A value="0.027667" />
  <B value="-243.53" />
  <C value="0.83395" />
  <D value="-0.010754" />
  <E value="0.0000058849" />
  <Tmin units="K" value="250" />
  <Tmax units="K" value="282.65" />
  </LiquidThermalConductivity>
<VaporThermalConductivity name="Vapour thermal conductivity" units="W/m/K">
  <eqno value="102" />
  <A value="0.0000044729" />
  <B value="1.4644" />
  <C value="-142.95" />
  <D value="66180" />
  <Tmin units="K" value="256.6" />
  <Tmax units="K" value="1000" />
  </VaporThermalConductivity>
<SurfaceTension name="Surface tension" units="N/m">
  <eqno value="16" />
  <A value="-0.0033983" />
  <B value="725.98" />
  <C value="-11.296" />
  <D value="0.029733" />
  <E value="-0.000047837" />
  <Tmin units="K" value="256.58" />
  <Tmax units="K" value="424.47" />
  </SurfaceTension>
<RPPHeatCapacityCp name="Ideal gas heat capacity (RPP)" units="J/kmol/K">
  <eqno value="100" />
  <A value="-13269.77" />
  <B value="532.8823" />
  <C value="-0.298739" />
  <D value="0.0000708818" />
  <E value="-1.227225E-09" />
  <Tmin units="K" value="200" />
  <Tmax units="K" value="1000" />
  </RPPHeatCapacityCp>
<RelativeStaticPermittivity name="Relative static permittivity" units="_">
  <eqno value="120" />
  <A value="-1.305" />
  <B value="-885" />
  <C value="-5.31" />
  <Tmin units="K" value="275" />
  <Tmax units="K" value="445" />
  </RelativeStaticPermittivity>
<AntoineVaporPressure name="Antoine" units="Pa">
  <eqno value="10" />
  <A value="20.717" />
  <B value="2353.3" />
  <C value="-26.585" />
  <Tmin units="K" value="262.75" />
  <Tmax units="K" value="390" />
  </AntoineVaporPressure>
<LiquidViscosityRPS name="Liquid viscosity (RPS)" units="Pa.s">
  <eqno value="13" />
  <A value="3.7101" />
  <B value="-0.069319" />
  <C value="0.000096523" />
  <Tmin units="K" value="256.6" />
  <Tmax units="K" value="304" />
  </LiquidViscosityRPS>
<COSTALDVolume name="COSTLD characteristic volume (V*)" units="m3/kmol" value="0.31257" />
<DiameterLJ name="Lennard Jones diameter" units="m" value="6.059712E-10" />
<EnergyLJ name="Lennard Jones energy" units="K" value="250.7615" />
<RacketParameter name="Rackett parameter" units="_" value="0.2762" />
<FullerVolume name="Fuller et al. diffusion volume" units="_" value="107.22" />
<MatthiasCopemanC2 name="Mathias-Copeman C2" units="_" value="0.09145" />
<Parachor name="Parachor" units="kg0.25.m3/s0.5/kmol" value="0.0402" />
<SpecificGravity name="Specific gravity" units="_" value="0.595593" />
<Charge name="Charge" units="_" value="0" />
<CostaldAcentricFactor name="SRK acentric factor" units="_" value="0.1975" />
<WilsonVolume name="Wilson volume" units="m3/kmol" value="0.119551" />
<UniquacR name="UNIQUAC r" units="_" value="3.8239" />
<UniquacQ name="UNIQUAC q" units="_" value="3.392" />
<ApiSrkS2 name="API-SRK s2" units="_" value="0.000695" />
<MatthiasCopemanC3 name="Mathias-Copeman C3" units="_" value="-0.58084" />
<ChaoSeaderAcentricFactor name="Chao-Seader acentric factor" units="_" value="0.195" />
<ChaoSeaderSolubilityParameter name="Chao-Seader solubility parameter" units="J0.5/m1.5" value="14359.41" />
<ChaoSeaderLiquidVolume name="Chao-Seader liquid volume" units="m3/kmol" value="0.1233" />
<UnifacVLE name="UNIFAC">
  <group id="1" value="4" />
  <group id="4" value="1" />
  </UnifacVLE>
<UnifacLLE name="UNIFAC-LLE">
  <group id="1" value="4" />
  <group id="4" value="1" />
  </UnifacLLE>
<Asog name="ASOG">
  <group id="1" value="4" />
  <group id="4" value="1" />
  </Asog>
<GCmethod name="PPR78">
  <group id="1" value="4" />
  <group id="4" value="1" />
  </GCmethod>
<Umr name="UMR">
  <group id="1" value="4" />
  <group id="4" value="1" />
  </Umr>
<ModifiedUnifac name="Modified UNIFAC">
  <group id="1" value="4" />
  <group id="4" value="1" />
  </ModifiedUnifac>
<CAS name="CAS number" value="463-82-1" />
<Smiles name="SMILES" value="CC(C)(C)C" />
</compound>

