<compound>
<LibraryIndex name="Index" value="912" />
<CompoundID name="Name" value="nitric oxide" />
<StructureFormula name="Structure" value="NO" />
<Family name="Family" value="24" />
<CriticalTemperature name="Critical temperature" units="K" value="180" />
<CriticalPressure name="Critical pressure" units="Pa" value="6480000" />
<CriticalVolume name="Critical volume" units="m3/kmol" value="0.058" />
<CriticalCompressibility name="Critical compressibility factor" units="_" value="0.251" />
<NormalBoilingPointTemperature name="Normal boiling point" units="K" value="121.38" />
<NormalMeltingPointTemperature name="Melting point" units="K" value="112.15" />
<TriplePointTemperature name="Triple point temperature" units="K" value="109.5" />
<TriplePointPressure name="Triple point pressure" units="Pa" value="21890" />
<MolecularWeight name="Molecular weight" units="kg/kmol" value="30.0061" />
<LiquidVolumeAtNormalBoilingPoint name="Liquid molar volume at normal boiling point" units="m3/kmol" value="0.02344" />
<AcentricityFactor name="Acentric factor" units="_" value="0.582" />
<RadiusOfGyration name="Radius of gyration" units="m" value="5.488E-11" />
<SolubilityParameter name="Solubility parameter" units="J0.5/m1.5" value="23120" />
<DipoleMoment name="Dipole moment" units="Coulomb.m" value="5.1E-31" />
<VanDerWaalsVolume name="Van der Waals volume" units="m3/kmol" value="0.0139" />
<VanDerWaalsArea name="Van der Waals area" units="m2/kmol" value="2.46487E+08" />
<HeatOfFormation name="IG heat of formation" units="J/kmol" value="9.025E+07" />
<GibbsEnergyOfFormation name="IG Gibbs energy of formation" units="J/kmol" value="8.657E+07" />
<AbsEntropy name="IG absolute entropy" units="J/kmol/K" value="210600" />
<HeatOfFusionAtMeltingPoint name="Heat of fusion at melting point" units="J/kmol" value="2301000" />
<MatthiasCopemanC1 name="Mathias-Copeman C1" units="_" value="1.3447" />
<HeatOfCombustion name="Standard net heat of combustion LHV" units="J/kmol" value="-9.02489E+07" />
<SolidDensity name="Solid density" units="kmol/m3">
  <eqno value="2" />
  <A value="52.715" />
  <B value="-0.013637" />
  <Tmin units="K" value="20" />
  <Tmax units="K" value="109.5" />
  </SolidDensity>
<LiquidDensity name="Liquid density" units="kmol/m3">
  <eqno value="105" />
  <A value="2.1354" />
  <B value="0.19686" />
  <C value="180.16" />
  <D value="0.15443" />
  <Tmin units="K" value="109.5" />
  <Tmax units="K" value="180.15" />
  </LiquidDensity>
<VaporPressure name="Vapour pressure" units="Pa">
  <eqno value="101" />
  <A value="98.67523" />
  <B value="-3011.477" />
  <C value="-13.21121" />
  <D value="0.000072078" />
  <E value="2" />
  <Tmin units="K" value="106.16" />
  <Tmax units="K" value="180.15" />
  </VaporPressure>
<HeatOfVaporization name="Heat of vaporization" units="J/kmol">
  <eqno value="106" />
  <A value="2.4721E+07" />
  <B value="2.2365" />
  <C value="-5.8672" />
  <D value="6.8169" />
  <E value="-2.7529" />
  <Tmin units="K" value="109.5" />
  <Tmax units="K" value="176.43" />
  </HeatOfVaporization>
<LiquidHeatCapacityCp name="Liquid heat capacity" units="J/kmol/K">
  <eqno value="16" />
  <A value="38756" />
  <B value="-323.94" />
  <C value="15.685" />
  <D value="-0.060412" />
  <E value="0.00033434" />
  <Tmin units="K" value="109.5" />
  <Tmax units="K" value="150" />
  </LiquidHeatCapacityCp>
<IdealGasHeatCapacityCp name="Ideal gas heat capacity" units="J/kmol/K">
  <eqno value="16" />
  <A value="29831.89" />
  <B value="-2622.96" />
  <C value="12.94433" />
  <D value="-0.00260975" />
  <E value="6.261468E-07" />
  <Tmin units="K" value="50" />
  <Tmax units="K" value="1500" />
  </IdealGasHeatCapacityCp>
<SecondVirialCoefficient name="Second virial coefficient" units="m3/kmol">
  <eqno value="104" />
  <A value="0.019784" />
  <B value="-8.5287" />
  <C value="-0.2596" />
  <D value="0.022481" />
  <E value="-0.1424" />
  <Tmin units="K" value="90.15" />
  <Tmax units="K" value="901.5" />
  </SecondVirialCoefficient>
<LiquidViscosity name="Liquid viscosity" units="Pa.s">
  <eqno value="101" />
  <A value="-50.098" />
  <B value="734.63" />
  <C value="8.0267" />
  <D value="-0.00017996" />
  <E value="2" />
  <Tmin units="K" value="109.15" />
  <Tmax units="K" value="180.05" />
  </LiquidViscosity>
<VaporViscosity name="Vapour viscosity" units="Pa.s">
  <eqno value="102" />
  <A value="0.0000010289" />
  <B value="0.55954" />
  <C value="89.353" />
  <D value="515.43" />
  <Tmin units="K" value="110" />
  <Tmax units="K" value="1773.15" />
  </VaporViscosity>
<LiquidThermalConductivity name="Liquid thermal conductivity" units="W/m/K">
  <eqno value="16" />
  <A value="-0.85384" />
  <B value="4.7868" />
  <C value="-0.010049" />
  <D value="0.0010454" />
  <E value="-0.0000086044" />
  <Tmin units="K" value="81" />
  <Tmax units="K" value="176.4" />
  </LiquidThermalConductivity>
<VaporThermalConductivity name="Vapour thermal conductivity" units="W/m/K">
  <eqno value="102" />
  <A value="0.00046657" />
  <B value="0.73353" />
  <C value="58.917" />
  <D value="-625.75" />
  <Tmin units="K" value="100" />
  <Tmax units="K" value="750" />
  </VaporThermalConductivity>
<SurfaceTension name="Surface tension" units="N/m">
  <eqno value="16" />
  <A value="-0.0028436" />
  <B value="551.06" />
  <C value="-17.017" />
  <D value="0.13002" />
  <E value="-0.00047689" />
  <Tmin units="K" value="109.5" />
  <Tmax units="K" value="176.43" />
  </SurfaceTension>
<RPPHeatCapacityCp name="Ideal gas heat capacity (RPP)" units="J/kmol/K">
  <eqno value="100" />
  <A value="37698" />
  <B value="-63.556" />
  <C value="0.17178" />
  <D value="-0.00017926" />
  <E value="6.7015E-08" />
  <Tmin units="K" value="50" />
  <Tmax units="K" value="1000" />
  </RPPHeatCapacityCp>
<AntoineVaporPressure name="Antoine" units="Pa">
  <eqno value="10" />
  <A value="22.389" />
  <B value="1041.3" />
  <C value="-25.5" />
  <Tmin units="K" value="110.7" />
  <Tmax units="K" value="161.56" />
  </AntoineVaporPressure>
<LiquidViscosityRPS name="Liquid viscosity (RPS)" units="Pa.s">
  <eqno value="13" />
  <A value="-6.7207" />
  <B value="0.0029181" />
  <C value="-0.00012236" />
  <Tmin units="K" value="109.15" />
  <Tmax units="K" value="180.05" />
  </LiquidViscosityRPS>
<COSTALDVolume name="COSTLD characteristic volume (V*)" units="m3/kmol" value="0.0665" />
<DiameterLJ name="Lennard Jones diameter" units="m" value="3.794133E-10" />
<EnergyLJ name="Lennard Jones energy" units="K" value="81.09816" />
<FullerVolume name="Fuller et al. diffusion volume" units="_" value="10.65" />
<MatthiasCopemanC2 name="Mathias-Copeman C2" units="_" value="0" />
<Parachor name="Parachor" units="kg0.25.m3/s0.5/kmol" value="0.00897" />
<SpecificGravity name="Specific gravity" units="_" value="0.0713227" />
<Charge name="Charge" units="_" value="0" />
<CostaldAcentricFactor name="SRK acentric factor" units="_" value="0.5896" />
<WilsonVolume name="Wilson volume" units="m3/kmol" value="0.0234267" />
<UniquacR name="UNIQUAC r" units="_" value="0.9163" />
<UniquacQ name="UNIQUAC q" units="_" value="0.9859" />
<MatthiasCopemanC3 name="Mathias-Copeman C3" units="_" value="0" />
<ChaoSeaderAcentricFactor name="Chao-Seader acentric factor" units="_" value="0.582944" />
<ChaoSeaderSolubilityParameter name="Chao-Seader solubility parameter" units="J0.5/m1.5" value="23117.6" />
<ChaoSeaderLiquidVolume name="Chao-Seader liquid volume" units="m3/kmol" value="0.0234267" />
<GCmethod name="PPR78">
  <group id="33" value="1" />
  </GCmethod>
<CAS name="CAS number" value="10102-43-9" />
<Smiles name="SMILES" value="[N]=O" />
</compound>

