<compound>
<LibraryIndex name="Index" value="1572" />
<CompoundID name="Name" value="o-dichlorobenzene" />
<StructureFormula name="Structure" value="(C6H4)Cl2" />
<Family name="Family" value="29" />
<CriticalTemperature name="Critical temperature" units="K" value="705" />
<CriticalPressure name="Critical pressure" units="Pa" value="4070000" />
<CriticalVolume name="Critical volume" units="m3/kmol" value="0.351" />
<CriticalCompressibility name="Critical compressibility factor" units="_" value="0.244" />
<NormalBoilingPointTemperature name="Normal boiling point" units="K" value="453.57" />
<NormalMeltingPointTemperature name="Melting point" units="K" value="256.15" />
<TriplePointTemperature name="Triple point temperature" units="K" value="256.15" />
<TriplePointPressure name="Triple point pressure" units="Pa" value="6.48939" />
<MolecularWeight name="Molecular weight" units="kg/kmol" value="147.002" />
<LiquidVolumeAtNormalBoilingPoint name="Liquid molar volume at normal boiling point" units="m3/kmol" value="0.112969" />
<AcentricityFactor name="Acentric factor" units="_" value="0.219189" />
<RadiusOfGyration name="Radius of gyration" units="m" value="4.186E-10" />
<SolubilityParameter name="Solubility parameter" units="J0.5/m1.5" value="20310" />
<DipoleMoment name="Dipole moment" units="Coulomb.m" value="8.34E-30" />
<VanDerWaalsVolume name="Van der Waals volume" units="m3/kmol" value="0.0673" />
<VanDerWaalsArea name="Van der Waals area" units="m2/kmol" value="8.22E+08" />
<HeatOfFormation name="IG heat of formation" units="J/kmol" value="3.02E+07" />
<GibbsEnergyOfFormation name="IG Gibbs energy of formation" units="J/kmol" value="8.29E+07" />
<AbsEntropy name="IG absolute entropy" units="J/kmol/K" value="341850" />
<HeatOfFusionAtMeltingPoint name="Heat of fusion at melting point" units="J/kmol" value="1.266E+07" />
<MatthiasCopemanC1 name="Mathias-Copeman C1" units="_" value="0.66193" />
<HeatOfCombustion name="Standard net heat of combustion LHV" units="J/kmol" value="-2.826E+09" />
<SolidDensity name="Solid density" units="kmol/m3">
  <eqno value="2" />
  <A value="4.3487" />
  <B value="0.023944" />
  <Tmin units="K" value="233.15" />
  <Tmax units="K" value="256.15" />
  </SolidDensity>
<LiquidDensity name="Liquid density" units="kmol/m3">
  <eqno value="105" />
  <A value="0.74261" />
  <B value="0.26108" />
  <C value="705" />
  <D value="0.30655" />
  <Tmin units="K" value="256.15" />
  <Tmax units="K" value="705" />
  </LiquidDensity>
<VaporPressure name="Vapour pressure" units="Pa">
  <eqno value="101" />
  <A value="75.75983" />
  <B value="-8226.762" />
  <C value="-7.552754" />
  <D value="6.191298E-07" />
  <E value="2" />
  <Tmin units="K" value="256.15" />
  <Tmax units="K" value="705" />
  </VaporPressure>
<HeatOfVaporization name="Heat of vaporization" units="J/kmol">
  <eqno value="106" />
  <A value="8.774E+07" />
  <B value="2.8227" />
  <C value="-6.8433" />
  <D value="7.6547" />
  <E value="-3.1275" />
  <Tmin units="K" value="256.15" />
  <Tmax units="K" value="705" />
  </HeatOfVaporization>
<SolidHeatCapacityCp name="Solid heat capacity" units="J/kmol/K">
  <eqno value="100" />
  <A value="34.618" />
  <B value="1984.3" />
  <C value="-12.98" />
  <D value="0.037736" />
  <E value="-0.000041136" />
  <Tmin units="K" value="224.65" />
  <Tmax units="K" value="234.15" />
  </SolidHeatCapacityCp>
<LiquidHeatCapacityCp name="Liquid heat capacity" units="J/kmol/K">
  <eqno value="16" />
  <A value="127840" />
  <B value="-59.156" />
  <C value="8.3728" />
  <D value="0.0093569" />
  <E value="-0.0000051714" />
  <Tmin units="K" value="266.02" />
  <Tmax units="K" value="528.75" />
  </LiquidHeatCapacityCp>
<IdealGasHeatCapacityCp name="Ideal gas heat capacity" units="J/kmol/K">
  <eqno value="16" />
  <A value="55560" />
  <B value="-490.51" />
  <C value="12.648" />
  <D value="-0.00012186" />
  <E value="2.1792E-08" />
  <Tmin units="K" value="200" />
  <Tmax units="K" value="1500" />
  </IdealGasHeatCapacityCp>
<SecondVirialCoefficient name="Second virial coefficient" units="m3/kmol">
  <eqno value="104" />
  <A value="0.23253" />
  <B value="-364.15" />
  <C value="-75.666" />
  <D value="-71505" />
  <E value="114590" />
  <Tmin units="K" value="352.5" />
  <Tmax units="K" value="1937.5" />
  </SecondVirialCoefficient>
<LiquidViscosity name="Liquid viscosity" units="Pa.s">
  <eqno value="101" />
  <A value="-37.699" />
  <B value="2377" />
  <C value="4.0848" />
  <D value="-0.0000020768" />
  <E value="2" />
  <Tmin units="K" value="256.15" />
  <Tmax units="K" value="453.57" />
  </LiquidViscosity>
<VaporViscosity name="Vapour viscosity" units="Pa.s">
  <eqno value="102" />
  <A value="1.6041E-07" />
  <B value="0.76289" />
  <C value="205.1" />
  <D value="-39.728" />
  <Tmin units="K" value="256.15" />
  <Tmax units="K" value="1000" />
  </VaporViscosity>
<LiquidThermalConductivity name="Liquid thermal conductivity" units="W/m/K">
  <eqno value="16" />
  <A value="0.06919" />
  <B value="-379.09" />
  <C value="0.89948" />
  <D value="-0.0099037" />
  <E value="0.0000041677" />
  <Tmin units="K" value="262.87" />
  <Tmax units="K" value="351.71" />
  </LiquidThermalConductivity>
<VaporThermalConductivity name="Vapour thermal conductivity" units="W/m/K">
  <eqno value="102" />
  <A value="-1200.2" />
  <B value="0.7235" />
  <C value="-2.8422E+09" />
  <D value="-8.8684E+10" />
  <Tmin units="K" value="256.15" />
  <Tmax units="K" value="1000" />
  </VaporThermalConductivity>
<SurfaceTension name="Surface tension" units="N/m">
  <eqno value="16" />
  <A value="-0.003373" />
  <B value="482.91" />
  <C value="-6.8665" />
  <D value="0.011374" />
  <E value="-0.00001512" />
  <Tmin units="K" value="256.15" />
  <Tmax units="K" value="705" />
  </SurfaceTension>
<RPPHeatCapacityCp name="Ideal gas heat capacity (RPP)" units="J/kmol/K">
  <eqno value="4" />
  <A value="-14297.98" />
  <B value="550.447" />
  <C value="-0.451286" />
  <D value="0.000142863" />
  <Tmin units="K" value="200" />
  <Tmax units="K" value="1200" />
  </RPPHeatCapacityCp>
<RelativeStaticPermittivity name="Relative static permittivity" units="_">
  <eqno value="120" />
  <A value="-6.104208" />
  <B value="-3750" />
  <C value="-22.5" />
  <Tmin units="K" value="154" />
  <Tmax units="K" value="449.15" />
  </RelativeStaticPermittivity>
<AntoineVaporPressure name="Antoine" units="Pa">
  <eqno value="10" />
  <A value="20.671" />
  <B value="3414.3" />
  <C value="-79.992" />
  <Tmin units="K" value="428.95" />
  <Tmax units="K" value="634.13" />
  </AntoineVaporPressure>
<LiquidViscosityRPS name="Liquid viscosity (RPS)" units="Pa.s">
  <eqno value="13" />
  <A value="1.0621" />
  <B value="-0.037459" />
  <C value="0.000039274" />
  <Tmin units="K" value="256.15" />
  <Tmax units="K" value="453.57" />
  </LiquidViscosityRPS>
<COSTALDVolume name="COSTLD characteristic volume (V*)" units="m3/kmol" value="0.361537" />
<DiameterLJ name="Lennard Jones diameter" units="m" value="7.152857E-10" />
<EnergyLJ name="Lennard Jones energy" units="K" value="286.8836" />
<RacketParameter name="Rackett parameter" units="_" value="0.253547" />
<FullerVolume name="Fuller et al. diffusion volume" units="_" value="128.34" />
<MatthiasCopemanC2 name="Mathias-Copeman C2" units="_" value="1.1558" />
<Parachor name="Parachor" units="kg0.25.m3/s0.5/kmol" value="0.0495" />
<SpecificGravity name="Specific gravity" units="_" value="1.3118" />
<Charge name="Charge" units="_" value="0" />
<CostaldAcentricFactor name="SRK acentric factor" units="_" value="0.214215" />
<WilsonVolume name="Wilson volume" units="m3/kmol" value="0.11318" />
<UniquacR name="UNIQUAC r" units="_" value="4.4376" />
<UniquacQ name="UNIQUAC q" units="_" value="3.288" />
<MatthiasCopemanC3 name="Mathias-Copeman C3" units="_" value="-1.5483" />
<ChaoSeaderAcentricFactor name="Chao-Seader acentric factor" units="_" value="0.214215" />
<ChaoSeaderSolubilityParameter name="Chao-Seader solubility parameter" units="J0.5/m1.5" value="20271.3" />
<ChaoSeaderLiquidVolume name="Chao-Seader liquid volume" units="m3/kmol" value="0.11318" />
<UnifacVLE name="UNIFAC">
  <group id="10" value="4" />
  <group id="54" value="2" />
  </UnifacVLE>
<UnifacLLE name="UNIFAC-LLE">
  <group id="9" value="4" />
  <group id="40" value="2" />
  </UnifacLLE>
<Asog name="ASOG">
  <group id="10" value="4" />
  <group id="11" value="2" />
  <group id="42" value="2" />
  </Asog>
<Umr name="UMR">
  <group id="10" value="4" />
  <group id="54" value="2" />
  </Umr>
<ModifiedUnifac name="Modified UNIFAC">
  <group id="9" value="4" />
  <group id="53" value="2" />
  </ModifiedUnifac>
<CAS name="CAS number" value="95-50-1" />
<Smiles name="SMILES" value="c1([Cl])ccccc1([Cl])" />
</compound>

