<compound>
<LibraryIndex name="Index" value="525" />
<CompoundID name="Name" value="o-diethylbenzene" />
<StructureFormula name="Structure" value="CH3CH2(C6H4)CH2CH3" />
<Family name="Family" value="17" />
<CriticalTemperature name="Critical temperature" units="K" value="668" />
<CriticalPressure name="Critical pressure" units="Pa" value="2880000" />
<CriticalVolume name="Critical volume" units="m3/kmol" value="0.502" />
<CriticalCompressibility name="Critical compressibility factor" units="_" value="0.26" />
<NormalBoilingPointTemperature name="Normal boiling point" units="K" value="456.573" />
<NormalMeltingPointTemperature name="Melting point" units="K" value="241.91" />
<TriplePointTemperature name="Triple point temperature" units="K" value="241.929" />
<TriplePointPressure name="Triple point pressure" units="Pa" value="1.04119" />
<MolecularWeight name="Molecular weight" units="kg/kmol" value="134.2182" />
<LiquidVolumeAtNormalBoilingPoint name="Liquid molar volume at normal boiling point" units="m3/kmol" value="0.15328" />
<AcentricityFactor name="Acentric factor" units="_" value="0.3879" />
<RadiusOfGyration name="Radius of gyration" units="m" value="4.398E-10" />
<SolubilityParameter name="Solubility parameter" units="J0.5/m1.5" value="17760" />
<DipoleMoment name="Dipole moment" units="Coulomb.m" value="1.96803E-30" />
<VanDerWaalsVolume name="Van der Waals volume" units="m3/kmol" value="0.0911199" />
<VanDerWaalsArea name="Van der Waals area" units="m2/kmol" value="1.154E+09" />
<HeatOfFormation name="IG heat of formation" units="J/kmol" value="-1.89535E+07" />
<GibbsEnergyOfFormation name="IG Gibbs energy of formation" units="J/kmol" value="1.41084E+08" />
<AbsEntropy name="IG absolute entropy" units="J/kmol/K" value="434800" />
<HeatOfFusionAtMeltingPoint name="Heat of fusion at melting point" units="J/kmol" value="1.67778E+07" />
<MatthiasCopemanC1 name="Mathias-Copeman C1" units="_" value="0.736612" />
<HeatOfCombustion name="Standard net heat of combustion LHV" units="J/kmol" value="-5.5596E+09" />
<SolidDensity name="Solid density" units="kmol/m3">
  <eqno value="2" />
  <A value="8.6823" />
  <B value="-0.0039819" />
  <C value="0" />
  <D value="0" />
  <E value="0" />
  <Tmin units="K" value="96.77" />
  <Tmax units="K" value="241.93" />
  </SolidDensity>
<LiquidDensity name="Liquid density" units="kmol/m3">
  <eqno value="105" />
  <A value="0.52086" />
  <B value="0.25389" />
  <C value="668" />
  <D value="0.28666" />
  <Tmin units="K" value="241.93" />
  <Tmax units="K" value="645.58" />
  </LiquidDensity>
<VaporPressure name="Vapour pressure" units="Pa">
  <eqno value="101" />
  <A value="136.1844" />
  <B value="-10760.78" />
  <C value="-16.88233" />
  <D value="0.0000109939" />
  <E value="2" />
  <Tmin units="K" value="241.93" />
  <Tmax units="K" value="668" />
  </VaporPressure>
<HeatOfVaporization name="Heat of vaporization" units="J/kmol">
  <eqno value="106" />
  <A value="4.4827E+07" />
  <B value="-1.9073" />
  <C value="6.1295" />
  <D value="-6.3772" />
  <E value="2.4857" />
  <Tmin units="K" value="241.93" />
  <Tmax units="K" value="645.58" />
  </HeatOfVaporization>
<SolidHeatCapacityCp name="Solid heat capacity" units="J/kmol/K">
  <eqno value="100" />
  <A value="7349.5" />
  <B value="982.4" />
  <C value="-2.0447" />
  <D value="0.0056221" />
  <E value="-0.0000068735" />
  <Tmin units="K" value="50" />
  <Tmax units="K" value="241.9" />
  </SolidHeatCapacityCp>
<LiquidHeatCapacityCp name="Liquid heat capacity" units="J/kmol/K">
  <eqno value="16" />
  <A value="13731" />
  <B value="7.9227" />
  <C value="11.237" />
  <D value="0.004718" />
  <E value="-0.0000037106" />
  <Tmin units="K" value="241.93" />
  <Tmax units="K" value="456.61" />
  </LiquidHeatCapacityCp>
<IdealGasHeatCapacityCp name="Ideal gas heat capacity" units="J/kmol/K">
  <eqno value="16" />
  <A value="122330" />
  <B value="-723.39" />
  <C value="13.531" />
  <D value="-0.00028953" />
  <E value="7.2562E-08" />
  <Tmin units="K" value="200" />
  <Tmax units="K" value="1500" />
  </IdealGasHeatCapacityCp>
<SecondVirialCoefficient name="Second virial coefficient" units="m3/kmol">
  <eqno value="104" />
  <A value="0.32238" />
  <B value="-437.38" />
  <C value="-102.19" />
  <D value="33649" />
  <E value="-188440" />
  <Tmin units="K" value="334" />
  <Tmax units="K" value="2000" />
  </SecondVirialCoefficient>
<LiquidViscosity name="Liquid viscosity" units="Pa.s">
  <eqno value="101" />
  <A value="-13.971" />
  <B value="1608.7" />
  <C value="0.32395" />
  <D value="-5.0533E-07" />
  <E value="2" />
  <Tmin units="K" value="241.93" />
  <Tmax units="K" value="550" />
  </LiquidViscosity>
<VaporViscosity name="Vapour viscosity" units="Pa.s">
  <eqno value="102" />
  <A value="4.8451E-08" />
  <B value="0.84013" />
  <C value="-72.915" />
  <D value="24855" />
  <Tmin units="K" value="456.61" />
  <Tmax units="K" value="1000" />
  </VaporViscosity>
<LiquidThermalConductivity name="Liquid thermal conductivity" units="W/m/K">
  <eqno value="16" />
  <A value="-0.047218" />
  <B value="-11.073" />
  <C value="-1.4189" />
  <D value="-0.00077787" />
  <E value="-7.5252E-07" />
  <Tmin units="K" value="241.93" />
  <Tmax units="K" value="456.61" />
  </LiquidThermalConductivity>
<VaporThermalConductivity name="Vapour thermal conductivity" units="W/m/K">
  <eqno value="102" />
  <A value="0.000087851" />
  <B value="1.0397" />
  <C value="505.4" />
  <D value="47466" />
  <Tmin units="K" value="241.929" />
  <Tmax units="K" value="1000" />
  </VaporThermalConductivity>
<SurfaceTension name="Surface tension" units="N/m">
  <eqno value="16" />
  <A value="-0.093807" />
  <B value="-27.232" />
  <C value="-1.5935" />
  <D value="-0.0015645" />
  <E value="6.8395E-07" />
  <Tmin units="K" value="241.93" />
  <Tmax units="K" value="645.58" />
  </SurfaceTension>
<RPPHeatCapacityCp name="Ideal gas heat capacity (RPP)" units="J/kmol/K">
  <eqno value="4" />
  <A value="1394.1" />
  <B value="727.89" />
  <C value="-0.38743" />
  <D value="0.000075095" />
  <Tmin units="K" value="200" />
  <Tmax units="K" value="1500" />
  </RPPHeatCapacityCp>
<AntoineVaporPressure name="Antoine" units="Pa">
  <eqno value="10" />
  <A value="20.616" />
  <B value="3368.2" />
  <C value="-86.041" />
  <Tmin units="K" value="405.21" />
  <Tmax units="K" value="600.73" />
  </AntoineVaporPressure>
<LiquidViscosityRPS name="Liquid viscosity (RPS)" units="Pa.s">
  <eqno value="12" />
  <A value="-2.6125" />
  <B value="-0.013599" />
  <Tmin units="K" value="241.93" />
  <Tmax units="K" value="456.61" />
  </LiquidViscosityRPS>
<COSTALDVolume name="COSTLD characteristic volume (V*)" units="m3/kmol" value="0.501609" />
<DiameterLJ name="Lennard Jones diameter" units="m" value="7.467551E-10" />
<EnergyLJ name="Lennard Jones energy" units="K" value="341.6596" />
<RacketParameter name="Rackett parameter" units="_" value="0.26" />
<FullerVolume name="Fuller et al. diffusion volume" units="_" value="173.04" />
<MatthiasCopemanC2 name="Mathias-Copeman C2" units="_" value="1.685978" />
<Parachor name="Parachor" units="kg0.25.m3/s0.5/kmol" value="0.0631774" />
<SpecificGravity name="Specific gravity" units="_" value="0.884138" />
<Charge name="Charge" units="_" value="0" />
<CostaldAcentricFactor name="SRK acentric factor" units="_" value="0.3879" />
<WilsonVolume name="Wilson volume" units="m3/kmol" value="0.15328" />
<UniquacR name="UNIQUAC r" units="_" value="6.0066" />
<UniquacQ name="UNIQUAC q" units="_" value="4.616" />
<ApiSrkS2 name="API-SRK s2" units="_" value="0.011193" />
<MatthiasCopemanC3 name="Mathias-Copeman C3" units="_" value="-2.208474" />
<ChaoSeaderAcentricFactor name="Chao-Seader acentric factor" units="_" value="0.3879" />
<ChaoSeaderSolubilityParameter name="Chao-Seader solubility parameter" units="J0.5/m1.5" value="17760" />
<ChaoSeaderLiquidVolume name="Chao-Seader liquid volume" units="m3/kmol" value="0.15328" />
<UnifacVLE name="UNIFAC">
  <group id="1" value="2" />
  <group id="10" value="4" />
  <group id="13" value="2" />
  </UnifacVLE>
<UnifacLLE name="UNIFAC-LLE">
  <group id="1" value="2" />
  <group id="9" value="4" />
  <group id="12" value="2" />
  </UnifacLLE>
<Asog name="ASOG">
  <group id="1" value="2" />
  <group id="2" value="2" />
  <group id="10" value="4" />
  <group id="11" value="2" />
  </Asog>
<GCmethod name="PPR78">
  <group id="1" value="2" />
  <group id="7" value="4" />
  <group id="2" value="2" />
  <group id="8" value="2" />
  </GCmethod>
<Umr name="UMR">
  <group id="1" value="2" />
  <group id="10" value="4" />
  <group id="13" value="2" />
  </Umr>
<ModifiedUnifac name="Modified UNIFAC">
  <group id="1" value="2" />
  <group id="9" value="4" />
  <group id="12" value="2" />
  </ModifiedUnifac>
<CAS name="CAS number" value="135-01-3" />
<Smiles name="SMILES" value="c1(CC)c(CC)cccc1" />
</compound>

