<compound>
<LibraryIndex name="Index" value="511" />
<CompoundID name="Name" value="o-ethyltoluene" />
<StructureFormula name="Structure" value="CH3(C6H4)CH2CH3" />
<Family name="Family" value="17" />
<CriticalTemperature name="Critical temperature" units="K" value="651.15" />
<CriticalPressure name="Critical pressure" units="Pa" value="3040000" />
<CriticalVolume name="Critical volume" units="m3/kmol" value="0.46" />
<CriticalCompressibility name="Critical compressibility factor" units="_" value="0.26" />
<NormalBoilingPointTemperature name="Normal boiling point" units="K" value="438.33" />
<NormalMeltingPointTemperature name="Melting point" units="K" value="192.35" />
<TriplePointTemperature name="Triple point temperature" units="K" value="192.35" />
<TriplePointPressure name="Triple point pressure" units="Pa" value="0.00376669" />
<MolecularWeight name="Molecular weight" units="kg/kmol" value="120.1916" />
<LiquidVolumeAtNormalBoilingPoint name="Liquid molar volume at normal boiling point" units="m3/kmol" value="0.136967" />
<AcentricityFactor name="Acentric factor" units="_" value="0.2941" />
<RadiusOfGyration name="Radius of gyration" units="m" value="4.084E-10" />
<SolubilityParameter name="Solubility parameter" units="J0.5/m1.5" value="18090" />
<DipoleMoment name="Dipole moment" units="Coulomb.m" value="1.87E-30" />
<VanDerWaalsVolume name="Van der Waals volume" units="m3/kmol" value="0.08089" />
<VanDerWaalsArea name="Van der Waals area" units="m2/kmol" value="1.019E+09" />
<HeatOfFormation name="IG heat of formation" units="J/kmol" value="1213360" />
<GibbsEnergyOfFormation name="IG Gibbs energy of formation" units="J/kmol" value="1.31055E+08" />
<AbsEntropy name="IG absolute entropy" units="J/kmol/K" value="399350" />
<HeatOfFusionAtMeltingPoint name="Heat of fusion at melting point" units="J/kmol" value="9962100" />
<MatthiasCopemanC1 name="Mathias-Copeman C1" units="_" value="0.96524" />
<HeatOfCombustion name="Standard net heat of combustion LHV" units="J/kmol" value="-4.94607E+09" />
<SolidDensity name="Solid density" units="kmol/m3">
  <eqno value="2" />
  <A value="10.148" />
  <B value="-0.0059039" />
  <C value="0" />
  <D value="0" />
  <E value="0" />
  <Tmin units="K" value="76.94" />
  <Tmax units="K" value="192.35" />
  </SolidDensity>
<LiquidDensity name="Liquid density" units="kmol/m3">
  <eqno value="105" />
  <A value="0.37928" />
  <B value="0.20513" />
  <C value="651.15" />
  <D value="0.23356" />
  <Tmin units="K" value="192.35" />
  <Tmax units="K" value="646.15" />
  </LiquidDensity>
<VaporPressure name="Vapour pressure" units="Pa">
  <eqno value="101" />
  <A value="96.1971" />
  <B value="-8650.261" />
  <C value="-10.86209" />
  <D value="5.918239E-06" />
  <E value="2" />
  <Tmin units="K" value="192.35" />
  <Tmax units="K" value="650" />
  </VaporPressure>
<HeatOfVaporization name="Heat of vaporization" units="J/kmol">
  <eqno value="106" />
  <A value="8.227273E+07" />
  <B value="1.968046" />
  <C value="-3.535916" />
  <D value="3.107317" />
  <E value="-1.061436" />
  <Tmin units="K" value="192.35" />
  <Tmax units="K" value="650" />
  </HeatOfVaporization>
<SolidHeatCapacityCp name="Solid heat capacity" units="J/kmol/K">
  <eqno value="1" />
  <A value="188730" />
  <Tmin units="K" value="0" />
  <Tmax units="K" value="651.15" />
  </SolidHeatCapacityCp>
<LiquidHeatCapacityCp name="Liquid heat capacity" units="J/kmol/K">
  <eqno value="16" />
  <A value="-102370" />
  <B value="-26.419" />
  <C value="12.162" />
  <D value="0.0026059" />
  <E value="-0.000002126" />
  <Tmin units="K" value="192.35" />
  <Tmax units="K" value="438.33" />
  </LiquidHeatCapacityCp>
<IdealGasHeatCapacityCp name="Ideal gas heat capacity" units="J/kmol/K">
  <eqno value="16" />
  <A value="85432" />
  <B value="-569.61" />
  <C value="13.054" />
  <D value="0.000095945" />
  <E value="-4.3717E-08" />
  <Tmin units="K" value="150" />
  <Tmax units="K" value="1500" />
  </IdealGasHeatCapacityCp>
<SecondVirialCoefficient name="Second virial coefficient" units="m3/kmol">
  <eqno value="104" />
  <A value="0.28121" />
  <B value="-390.33" />
  <C value="-73.261" />
  <D value="-55800" />
  <E value="123430" />
  <Tmin units="K" value="325" />
  <Tmax units="K" value="1953" />
  </SecondVirialCoefficient>
<LiquidViscosity name="Liquid viscosity" units="Pa.s">
  <eqno value="101" />
  <A value="-10.303" />
  <B value="1378.1" />
  <C value="-0.24629" />
  <D value="5.1436E-07" />
  <E value="2" />
  <Tmin units="K" value="192.35" />
  <Tmax units="K" value="651" />
  </LiquidViscosity>
<VaporViscosity name="Vapour viscosity" units="Pa.s">
  <eqno value="102" />
  <A value="4.4089E-07" />
  <B value="0.56719" />
  <C value="270.1" />
  <D value="-4560.2" />
  <Tmin units="K" value="192.35" />
  <Tmax units="K" value="1000" />
  </VaporViscosity>
<LiquidThermalConductivity name="Liquid thermal conductivity" units="W/m/K">
  <eqno value="16" />
  <A value="-0.059289" />
  <B value="4.2071" />
  <C value="-1.4739" />
  <D value="-0.00039236" />
  <E value="-0.0000010623" />
  <Tmin units="K" value="192.35" />
  <Tmax units="K" value="438.33" />
  </LiquidThermalConductivity>
<VaporThermalConductivity name="Vapour thermal conductivity" units="W/m/K">
  <eqno value="102" />
  <A value="0.000092842" />
  <B value="1.0422" />
  <C value="544.16" />
  <D value="63099" />
  <Tmin units="K" value="192.35" />
  <Tmax units="K" value="1000" />
  </VaporThermalConductivity>
<SurfaceTension name="Surface tension" units="N/m">
  <eqno value="16" />
  <A value="-0.0095325" />
  <B value="42.422" />
  <C value="-3.1128" />
  <D value="0.0004594" />
  <E value="-0.0000045591" />
  <Tmin units="K" value="192.35" />
  <Tmax units="K" value="650" />
  </SurfaceTension>
<RPPHeatCapacityCp name="Ideal gas heat capacity (RPP)" units="J/kmol/K">
  <eqno value="4" />
  <A value="1934.6" />
  <B value="607.55" />
  <C value="-0.29066" />
  <D value="0.000046885" />
  <Tmin units="K" value="150" />
  <Tmax units="K" value="1500" />
  </RPPHeatCapacityCp>
<AntoineVaporPressure name="Antoine" units="Pa">
  <eqno value="10" />
  <A value="21.073" />
  <B value="3576.5" />
  <C value="-63.713" />
  <Tmin units="K" value="394.26" />
  <Tmax units="K" value="577.74" />
  </AntoineVaporPressure>
<LiquidViscosityRPS name="Liquid viscosity (RPS)" units="Pa.s">
  <eqno value="12" />
  <A value="-2.7738" />
  <B value="-0.013269" />
  <Tmin units="K" value="192.35" />
  <Tmax units="K" value="613.15" />
  </LiquidViscosityRPS>
<COSTALDVolume name="COSTLD characteristic volume (V*)" units="m3/kmol" value="0.440073" />
<DiameterLJ name="Lennard Jones diameter" units="m" value="7.253199E-10" />
<EnergyLJ name="Lennard Jones energy" units="K" value="333.0414" />
<RacketParameter name="Rackett parameter" units="_" value="0.248039" />
<FullerVolume name="Fuller et al. diffusion volume" units="_" value="152.52" />
<MatthiasCopemanC2 name="Mathias-Copeman C2" units="_" value="0" />
<Parachor name="Parachor" units="kg0.25.m3/s0.5/kmol" value="0.0565227" />
<SpecificGravity name="Specific gravity" units="_" value="0.885597" />
<Charge name="Charge" units="_" value="0" />
<CostaldAcentricFactor name="SRK acentric factor" units="_" value="0.2941" />
<WilsonVolume name="Wilson volume" units="m3/kmol" value="0.136967" />
<UniquacR name="UNIQUAC r" units="_" value="5.3322" />
<UniquacQ name="UNIQUAC q" units="_" value="4.076" />
<ApiSrkS2 name="API-SRK s2" units="_" value="0.047885" />
<MatthiasCopemanC3 name="Mathias-Copeman C3" units="_" value="0" />
<ChaoSeaderAcentricFactor name="Chao-Seader acentric factor" units="_" value="0.2941" />
<ChaoSeaderSolubilityParameter name="Chao-Seader solubility parameter" units="J0.5/m1.5" value="18090" />
<ChaoSeaderLiquidVolume name="Chao-Seader liquid volume" units="m3/kmol" value="0.136967" />
<UnifacVLE name="UNIFAC">
  <group id="1" value="1" />
  <group id="10" value="4" />
  <group id="12" value="1" />
  <group id="13" value="1" />
  </UnifacVLE>
<UnifacLLE name="UNIFAC-LLE">
  <group id="1" value="1" />
  <group id="9" value="4" />
  <group id="11" value="1" />
  <group id="12" value="1" />
  </UnifacLLE>
<Asog name="ASOG">
  <group id="1" value="2" />
  <group id="2" value="1" />
  <group id="10" value="4" />
  <group id="11" value="2" />
  </Asog>
<GCmethod name="PPR78">
  <group id="1" value="2" />
  <group id="7" value="4" />
  <group id="8" value="2" />
  <group id="2" value="1" />
  </GCmethod>
<Umr name="UMR">
  <group id="1" value="1" />
  <group id="10" value="4" />
  <group id="12" value="1" />
  <group id="13" value="1" />
  </Umr>
<ModifiedUnifac name="Modified UNIFAC">
  <group id="1" value="1" />
  <group id="9" value="4" />
  <group id="11" value="1" />
  <group id="12" value="1" />
  </ModifiedUnifac>
<CAS name="CAS number" value="611-14-3" />
<Smiles name="SMILES" value="c1(CC)c(C)cccc1" />
</compound>

