<compound>
<LibraryIndex name="Index" value="505" />
<CompoundID name="Name" value="o-xylene" />
<StructureFormula name="Structure" value="CH3(C6H4)CH3" />
<Family name="Family" value="17" />
<CriticalTemperature name="Critical temperature" units="K" value="630.3" />
<CriticalPressure name="Critical pressure" units="Pa" value="3732000" />
<CriticalVolume name="Critical volume" units="m3/kmol" value="0.37" />
<CriticalCompressibility name="Critical compressibility factor" units="_" value="0.263" />
<NormalBoilingPointTemperature name="Normal boiling point" units="K" value="417.59" />
<NormalMeltingPointTemperature name="Melting point" units="K" value="247.98" />
<TriplePointTemperature name="Triple point temperature" units="K" value="247.98" />
<TriplePointPressure name="Triple point pressure" units="Pa" value="21.842" />
<MolecularWeight name="Molecular weight" units="kg/kmol" value="106.165" />
<LiquidVolumeAtNormalBoilingPoint name="Liquid molar volume at normal boiling point" units="m3/kmol" value="0.12125" />
<AcentricityFactor name="Acentric factor" units="_" value="0.312" />
<RadiusOfGyration name="Radius of gyration" units="m" value="3.836E-10" />
<SolubilityParameter name="Solubility parameter" units="J0.5/m1.5" value="18390" />
<DipoleMoment name="Dipole moment" units="Coulomb.m" value="2.1E-30" />
<VanDerWaalsVolume name="Van der Waals volume" units="m3/kmol" value="0.07066" />
<VanDerWaalsArea name="Van der Waals area" units="m2/kmol" value="8.84E+08" />
<HeatOfFormation name="IG heat of formation" units="J/kmol" value="1.908E+07" />
<GibbsEnergyOfFormation name="IG Gibbs energy of formation" units="J/kmol" value="1.22E+08" />
<AbsEntropy name="IG absolute entropy" units="J/kmol/K" value="353830" />
<HeatOfFusionAtMeltingPoint name="Heat of fusion at melting point" units="J/kmol" value="1.36E+07" />
<MatthiasCopemanC1 name="Mathias-Copeman C1" units="_" value="1.03316" />
<HeatOfCombustion name="Standard net heat of combustion LHV" units="J/kmol" value="-4.333E+09" />
<SolidDensity name="Solid density" units="kmol/m3">
  <eqno value="2" />
  <A value="10.582" />
  <B value="-0.0039991" />
  <Tmin units="K" value="203.1" />
  <Tmax units="K" value="248" />
  </SolidDensity>
<LiquidDensity name="Liquid density" units="kmol/m3">
  <eqno value="105" />
  <A value="0.69962" />
  <B value="0.26143" />
  <C value="630.3" />
  <D value="0.27365" />
  <Tmin units="K" value="247.98" />
  <Tmax units="K" value="630.3" />
  </LiquidDensity>
<VaporPressure name="Vapour pressure" units="Pa">
  <eqno value="101" />
  <A value="88.08217" />
  <B value="-7844.793" />
  <C value="-9.738423" />
  <D value="5.713756E-06" />
  <E value="2" />
  <Tmin units="K" value="247.98" />
  <Tmax units="K" value="630.33" />
  </VaporPressure>
<HeatOfVaporization name="Heat of vaporization" units="J/kmol">
  <eqno value="106" />
  <A value="6.6979E+07" />
  <B value="1.259" />
  <C value="-1.849" />
  <D value="1.5198" />
  <E value="-0.50455" />
  <Tmin units="K" value="247.98" />
  <Tmax units="K" value="612" />
  </HeatOfVaporization>
<SolidHeatCapacityCp name="Solid heat capacity" units="J/kmol/K">
  <eqno value="100" />
  <A value="-12409" />
  <B value="1322.1" />
  <C value="-6.4842" />
  <D value="0.018683" />
  <E value="-0.000013938" />
  <Tmin units="K" value="20" />
  <Tmax units="K" value="247.98" />
  </SolidHeatCapacityCp>
<LiquidHeatCapacityCp name="Liquid heat capacity" units="J/kmol/K">
  <eqno value="16" />
  <A value="134490" />
  <B value="-170.61" />
  <C value="10.247" />
  <D value="0.0049096" />
  <E value="-0.0000031727" />
  <Tmin units="K" value="247.8" />
  <Tmax units="K" value="473.15" />
  </LiquidHeatCapacityCp>
<IdealGasHeatCapacityCp name="Ideal gas heat capacity" units="J/kmol/K">
  <eqno value="16" />
  <A value="73986" />
  <B value="-589.13" />
  <C value="12.936" />
  <D value="0.000080122" />
  <E value="-4.5074E-08" />
  <Tmin units="K" value="200" />
  <Tmax units="K" value="1500" />
  </IdealGasHeatCapacityCp>
<SecondVirialCoefficient name="Second virial coefficient" units="m3/kmol">
  <eqno value="104" />
  <A value="0.18068" />
  <B value="-139.72" />
  <C value="-79.094" />
  <D value="-34596" />
  <E value="63013" />
  <Tmin units="K" value="250" />
  <Tmax units="K" value="1500" />
  </SecondVirialCoefficient>
<LiquidViscosity name="Liquid viscosity" units="Pa.s">
  <eqno value="101" />
  <A value="-11.059" />
  <B value="1251.7" />
  <C value="-0.076438" />
  <D value="0.000001254" />
  <E value="2" />
  <Tmin units="K" value="247.98" />
  <Tmax units="K" value="493.6" />
  </LiquidViscosity>
<VaporViscosity name="Vapour viscosity" units="Pa.s">
  <eqno value="102" />
  <A value="6.783E-08" />
  <B value="0.82039" />
  <C value="-1.2715" />
  <D value="13072" />
  <Tmin units="K" value="247.98" />
  <Tmax units="K" value="1273.15" />
  </VaporViscosity>
<LiquidThermalConductivity name="Liquid thermal conductivity" units="W/m/K">
  <eqno value="16" />
  <A value="-0.018751" />
  <B value="-22.77" />
  <C value="-1.3391" />
  <D value="-0.0014281" />
  <E value="-6.1692E-07" />
  <Tmin units="K" value="247.98" />
  <Tmax units="K" value="417.58" />
  </LiquidThermalConductivity>
<VaporThermalConductivity name="Vapour thermal conductivity" units="W/m/K">
  <eqno value="102" />
  <A value="0.0000059387" />
  <B value="1.356" />
  <C value="-206" />
  <D value="65058" />
  <Tmin units="K" value="247.98" />
  <Tmax units="K" value="1000" />
  </VaporThermalConductivity>
<SurfaceTension name="Surface tension" units="N/m">
  <eqno value="16" />
  <A value="-0.011942" />
  <B value="49.212" />
  <C value="-3.1236" />
  <D value="0.00059647" />
  <E value="-0.0000045152" />
  <Tmin units="K" value="247.98" />
  <Tmax units="K" value="610.18" />
  </SurfaceTension>
<RPPHeatCapacityCp name="Ideal gas heat capacity (RPP)" units="J/kmol/K">
  <eqno value="100" />
  <A value="27346" />
  <B value="283.89" />
  <C value="0.41481" />
  <D value="-0.00069301" />
  <E value="2.7754E-07" />
  <Tmin units="K" value="50" />
  <Tmax units="K" value="1000" />
  </RPPHeatCapacityCp>
<RelativeStaticPermittivity name="Relative static permittivity" units="_">
  <eqno value="120" />
  <A value="-1.955809" />
  <B value="-1300" />
  <C value="-7.8" />
  <Tmin units="K" value="274.15" />
  <Tmax units="K" value="444.15" />
  </RelativeStaticPermittivity>
<AntoineVaporPressure name="Antoine" units="Pa">
  <eqno value="10" />
  <A value="21.286" />
  <B value="3609.8" />
  <C value="-47.763" />
  <Tmin units="K" value="381.4" />
  <Tmax units="K" value="563.23" />
  </AntoineVaporPressure>
<LiquidViscosityRPS name="Liquid viscosity (RPS)" units="Pa.s">
  <eqno value="13" />
  <A value="0.10974" />
  <B value="-0.03518" />
  <C value="0.000036077" />
  <Tmin units="K" value="247.98" />
  <Tmax units="K" value="418.1" />
  </LiquidViscosityRPS>
<COSTALDVolume name="COSTLD characteristic volume (V*)" units="m3/kmol" value="0.36733" />
<DiameterLJ name="Lennard Jones diameter" units="m" value="6.653221E-10" />
<EnergyLJ name="Lennard Jones energy" units="K" value="335.9706" />
<RacketParameter name="Rackett parameter" units="_" value="0.2633" />
<FullerVolume name="Fuller et al. diffusion volume" units="_" value="132" />
<MatthiasCopemanC2 name="Mathias-Copeman C2" units="_" value="-0.66585" />
<Parachor name="Parachor" units="kg0.25.m3/s0.5/kmol" value="0.05" />
<SpecificGravity name="Specific gravity" units="_" value="0.883145" />
<Charge name="Charge" units="_" value="0" />
<CostaldAcentricFactor name="SRK acentric factor" units="_" value="0.3118" />
<WilsonVolume name="Wilson volume" units="m3/kmol" value="0.121145" />
<UniquacR name="UNIQUAC r" units="_" value="4.66" />
<UniquacQ name="UNIQUAC q" units="_" value="3.54" />
<UniquacQP name="UNIQUAC q'" units="_" value="3.54" />
<ApiSrkS2 name="API-SRK s2" units="_" value="-0.006569" />
<MatthiasCopemanC3 name="Mathias-Copeman C3" units="_" value="1.1646" />
<ChaoSeaderAcentricFactor name="Chao-Seader acentric factor" units="_" value="0.2904" />
<ChaoSeaderSolubilityParameter name="Chao-Seader solubility parameter" units="J0.5/m1.5" value="18389.04" />
<ChaoSeaderLiquidVolume name="Chao-Seader liquid volume" units="m3/kmol" value="0.1212" />
<UnifacVLE name="UNIFAC">
  <group id="10" value="4" />
  <group id="12" value="2" />
  </UnifacVLE>
<UnifacLLE name="UNIFAC-LLE">
  <group id="9" value="4" />
  <group id="11" value="2" />
  </UnifacLLE>
<Asog name="ASOG">
  <group id="1" value="2" />
  <group id="10" value="4" />
  <group id="11" value="2" />
  </Asog>
<GCmethod name="PPR78">
  <group id="1" value="2" />
  <group id="7" value="4" />
  <group id="8" value="2" />
  </GCmethod>
<Umr name="UMR">
  <group id="10" value="4" />
  <group id="12" value="2" />
  </Umr>
<ModifiedUnifac name="Modified UNIFAC">
  <group id="9" value="4" />
  <group id="11" value="2" />
  </ModifiedUnifac>
<CAS name="CAS number" value="95-47-6" />
<Smiles name="SMILES" value="c1(C)ccccc1(C)" />
</compound>

