<compound>
<LibraryIndex name="Index" value="901" />
<CompoundID name="Name" value="oxygen" />
<StructureFormula name="Structure" value="O2" />
<Family name="Family" value="74" />
<CriticalTemperature name="Critical temperature" units="K" value="154.58" />
<CriticalPressure name="Critical pressure" units="Pa" value="5043000" />
<CriticalVolume name="Critical volume" units="m3/kmol" value="0.07337" />
<CriticalCompressibility name="Critical compressibility factor" units="_" value="0.288" />
<NormalBoilingPointTemperature name="Normal boiling point" units="K" value="90.17" />
<NormalMeltingPointTemperature name="Melting point" units="K" value="54.361" />
<TriplePointTemperature name="Triple point temperature" units="K" value="54.361" />
<TriplePointPressure name="Triple point pressure" units="Pa" value="150" />
<MolecularWeight name="Molecular weight" units="kg/kmol" value="31.9988" />
<LiquidVolumeAtNormalBoilingPoint name="Liquid molar volume at normal boiling point" units="m3/kmol" value="0.02785" />
<AcentricityFactor name="Acentric factor" units="_" value="0.022" />
<RadiusOfGyration name="Radius of gyration" units="m" value="6.8E-11" />
<SolubilityParameter name="Solubility parameter" units="J0.5/m1.5" value="8182" />
<DipoleMoment name="Dipole moment" units="Coulomb.m" value="0" />
<VanDerWaalsVolume name="Van der Waals volume" units="m3/kmol" value="0.013" />
<VanDerWaalsArea name="Van der Waals area" units="m2/kmol" value="2.35E+08" />
<HeatOfFormation name="IG heat of formation" units="J/kmol" value="0" />
<GibbsEnergyOfFormation name="IG Gibbs energy of formation" units="J/kmol" value="0" />
<AbsEntropy name="IG absolute entropy" units="J/kmol/K" value="205043" />
<HeatOfFusionAtMeltingPoint name="Heat of fusion at melting point" units="J/kmol" value="444000" />
<MatthiasCopemanC1 name="Mathias-Copeman C1" units="_" value="0.51298" />
<HeatOfCombustion name="Standard net heat of combustion LHV" units="J/kmol" value="0" />
<SolidDensity name="Solid density" units="kmol/m3">
  <eqno value="2" />
  <A value="44.552" />
  <B value="-4.4857E-08" />
  <Tmin units="K" value="20.65" />
  <Tmax units="K" value="30.15" />
  </SolidDensity>
<LiquidDensity name="Liquid density" units="kmol/m3">
  <eqno value="105" />
  <A value="2.6097" />
  <B value="0.23614" />
  <C value="154.78" />
  <D value="0.23695" />
  <Tmin units="K" value="54.35" />
  <Tmax units="K" value="154.77" />
  </LiquidDensity>
<VaporPressure name="Vapour pressure" units="Pa">
  <eqno value="101" />
  <A value="40.55487" />
  <B value="-1120.543" />
  <C value="-3.776114" />
  <D value="0.0000485344" />
  <E value="2" />
  <Tmin units="K" value="54.35" />
  <Tmax units="K" value="154.8" />
  </VaporPressure>
<HeatOfVaporization name="Heat of vaporization" units="J/kmol">
  <eqno value="106" />
  <A value="1.0672E+07" />
  <B value="1.5661" />
  <C value="-3.4356" />
  <D value="3.5416" />
  <E value="-1.2718" />
  <Tmin units="K" value="54.36" />
  <Tmax units="K" value="154.58" />
  </HeatOfVaporization>
<SolidHeatCapacityCp name="Solid heat capacity" units="J/kmol/K">
  <eqno value="100" />
  <A value="-15381" />
  <B value="1601.9" />
  <C value="-10.968" />
  <D value="0.24187" />
  <E value="-0.0020734" />
  <Tmin units="K" value="13.46" />
  <Tmax units="K" value="43.78" />
  </SolidHeatCapacityCp>
<LiquidHeatCapacityCp name="Liquid heat capacity" units="J/kmol/K">
  <eqno value="16" />
  <A value="53393" />
  <B value="-1966.4" />
  <C value="48.21" />
  <D value="-0.31631" />
  <E value="0.0010466" />
  <Tmin units="K" value="54.36" />
  <Tmax units="K" value="145" />
  </LiquidHeatCapacityCp>
<IdealGasHeatCapacityCp name="Ideal gas heat capacity" units="J/kmol/K">
  <eqno value="16" />
  <A value="29061.62" />
  <B value="-1470.897" />
  <C value="11.10778" />
  <D value="-0.00128484" />
  <E value="3.183122E-07" />
  <Tmin units="K" value="50" />
  <Tmax units="K" value="1500" />
  </IdealGasHeatCapacityCp>
<SecondVirialCoefficient name="Second virial coefficient" units="m3/kmol">
  <eqno value="104" />
  <A value="0.039522" />
  <B value="-15.729" />
  <C value="-0.082121" />
  <D value="0.012408" />
  <E value="-0.0087531" />
  <Tmin units="K" value="77.29" />
  <Tmax units="K" value="1200" />
  </SecondVirialCoefficient>
<LiquidViscosity name="Liquid viscosity" units="Pa.s">
  <eqno value="101" />
  <A value="-5.2319" />
  <B value="116.13" />
  <C value="-1.0315" />
  <D value="0.0000034376" />
  <E value="2" />
  <Tmin units="K" value="54.36" />
  <Tmax units="K" value="150" />
  </LiquidViscosity>
<VaporViscosity name="Vapour viscosity" units="Pa.s">
  <eqno value="102" />
  <A value="8.0134E-07" />
  <B value="0.60321" />
  <C value="56.09" />
  <D value="1584.9" />
  <Tmin units="K" value="54.35" />
  <Tmax units="K" value="1950" />
  </VaporViscosity>
<LiquidThermalConductivity name="Liquid thermal conductivity" units="W/m/K">
  <eqno value="16" />
  <A value="-0.19654" />
  <B value="-10.535" />
  <C value="-0.46717" />
  <D value="-0.0052064" />
  <E value="-3.3418E-07" />
  <Tmin units="K" value="50" />
  <Tmax units="K" value="150" />
  </LiquidThermalConductivity>
<VaporThermalConductivity name="Vapour thermal conductivity" units="W/m/K">
  <eqno value="102" />
  <A value="0.0004508" />
  <B value="0.74544" />
  <C value="58.278" />
  <D value="-562.62" />
  <Tmin units="K" value="60" />
  <Tmax units="K" value="2000" />
  </VaporThermalConductivity>
<SurfaceTension name="Surface tension" units="N/m">
  <eqno value="16" />
  <A value="-0.0062662" />
  <B value="17.53" />
  <C value="-3.9173" />
  <D value="0.0058473" />
  <E value="-0.000091613" />
  <Tmin units="K" value="54.35" />
  <Tmax units="K" value="154.58" />
  </SurfaceTension>
<RPPHeatCapacityCp name="Ideal gas heat capacity (RPP)" units="J/kmol/K">
  <eqno value="100" />
  <A value="30182" />
  <B value="-14.916" />
  <C value="0.054709" />
  <D value="-0.00004997" />
  <E value="1.4883E-08" />
  <Tmin units="K" value="50" />
  <Tmax units="K" value="1000" />
  </RPPHeatCapacityCp>
<RelativeStaticPermittivity name="Relative static permittivity" units="_">
  <eqno value="1" />
  <A value="1.000494" />
  <Tmin units="K" value="100" />
  <Tmax units="K" value="1500" />
  </RelativeStaticPermittivity>
<AntoineVaporPressure name="Antoine" units="Pa">
  <eqno value="10" />
  <A value="20.836" />
  <B value="842.12" />
  <C value="0.35556" />
  <Tmin units="K" value="92.87" />
  <Tmax units="K" value="138.76" />
  </AntoineVaporPressure>
<LiquidViscosityRPS name="Liquid viscosity (RPS)" units="Pa.s">
  <eqno value="13" />
  <A value="-4.5492" />
  <B value="-0.061584" />
  <C value="0.00019142" />
  <Tmin units="K" value="54.36" />
  <Tmax units="K" value="150" />
  </LiquidViscosityRPS>
<COSTALDVolume name="COSTLD characteristic volume (V*)" units="m3/kmol" value="0.0737899" />
<DiameterLJ name="Lennard Jones diameter" units="m" value="3.479206E-10" />
<EnergyLJ name="Lennard Jones energy" units="K" value="114.2561" />
<RacketParameter name="Rackett parameter" units="_" value="0.2908" />
<FullerVolume name="Fuller et al. diffusion volume" units="_" value="16.3" />
<MatthiasCopemanC2 name="Mathias-Copeman C2" units="_" value="0" />
<Parachor name="Parachor" units="kg0.25.m3/s0.5/kmol" value="0.00953" />
<SpecificGravity name="Specific gravity" units="_" value="1.13768" />
<Charge name="Charge" units="_" value="0" />
<CostaldAcentricFactor name="SRK acentric factor" units="_" value="0.0297998" />
<WilsonVolume name="Wilson volume" units="m3/kmol" value="0.0280225" />
<UniquacR name="UNIQUAC r" units="_" value="0.857" />
<UniquacQ name="UNIQUAC q" units="_" value="0.94" />
<MatthiasCopemanC3 name="Mathias-Copeman C3" units="_" value="0" />
<ChaoSeaderAcentricFactor name="Chao-Seader acentric factor" units="_" value="0.019" />
<ChaoSeaderSolubilityParameter name="Chao-Seader solubility parameter" units="J0.5/m1.5" value="8181.93" />
<ChaoSeaderLiquidVolume name="Chao-Seader liquid volume" units="m3/kmol" value="0.0280225" />
<GCmethod name="PPR78">
  <group id="32" value="1" />
  </GCmethod>
<Umr name="UMR">
  <group id="210" value="1" />
  </Umr>
<CAS name="CAS number" value="7782-44-7" />
<Smiles name="SMILES" value="O=O" />
</compound>

