<compound>
<LibraryIndex name="Index" value="924" />
<CompoundID name="Name" value="ozone" />
<StructureFormula name="Structure" value="O3" />
<Family name="Family" value="24" />
<CriticalTemperature name="Critical temperature" units="K" value="261.05" />
<CriticalPressure name="Critical pressure" units="Pa" value="5570000" />
<CriticalVolume name="Critical volume" units="m3/kmol" value="0.0894" />
<CriticalCompressibility name="Critical compressibility factor" units="_" value="0.229" />
<NormalBoilingPointTemperature name="Normal boiling point" units="K" value="161.8" />
<NormalMeltingPointTemperature name="Melting point" units="K" value="22.1499" />
<TriplePointTemperature name="Triple point temperature" units="K" value="80.15" />
<TriplePointPressure name="Triple point pressure" units="Pa" value="0.734621" />
<MolecularWeight name="Molecular weight" units="kg/kmol" value="47.9982" />
<LiquidVolumeAtNormalBoilingPoint name="Liquid molar volume at normal boiling point" units="m3/kmol" value="0.0354" />
<AcentricityFactor name="Acentric factor" units="_" value="0.224" />
<RadiusOfGyration name="Radius of gyration" units="m" value="1.544E-10" />
<SolubilityParameter name="Solubility parameter" units="J0.5/m1.5" value="18740" />
<DipoleMoment name="Dipole moment" units="Coulomb.m" value="1.8E-30" />
<VanDerWaalsVolume name="Van der Waals volume" units="m3/kmol" value="0.016687" />
<VanDerWaalsArea name="Van der Waals area" units="m2/kmol" value="3.175E+08" />
<HeatOfFormation name="IG heat of formation" units="J/kmol" value="1.431E+08" />
<GibbsEnergyOfFormation name="IG Gibbs energy of formation" units="J/kmol" value="1.63164E+08" />
<AbsEntropy name="IG absolute entropy" units="J/kmol/K" value="238823" />
<HeatOfFusionAtMeltingPoint name="Heat of fusion at melting point" units="J/kmol" value="2000000" />
<MatthiasCopemanC1 name="Mathias-Copeman C1" units="_" value="0.755282" />
<HeatOfCombustion name="Standard net heat of combustion LHV" units="J/kmol" value="-1.42671E+08" />
<SolidDensity name="Solid density" units="kmol/m3">
  <eqno value="2" />
  <A value="36.026" />
  <B value="-0.000044231" />
  <C value="0" />
  <D value="0" />
  <E value="0" />
  <Tmin units="K" value="77.15" />
  <Tmax units="K" value="86.65" />
  </SolidDensity>
<LiquidDensity name="Liquid density" units="kmol/m3">
  <eqno value="105" />
  <A value="2.6432" />
  <B value="0.26544" />
  <C value="261.05" />
  <D value="0.25239" />
  <Tmin units="K" value="77.55" />
  <Tmax units="K" value="261" />
  </LiquidDensity>
<VaporPressure name="Vapour pressure" units="Pa">
  <eqno value="101" />
  <A value="33.80011" />
  <B value="-2066.264" />
  <C value="-1.865143" />
  <D value="3.696996E-08" />
  <E value="2" />
  <Tmin units="K" value="80.15" />
  <Tmax units="K" value="261" />
  </VaporPressure>
<HeatOfVaporization name="Heat of vaporization" units="J/kmol">
  <eqno value="106" />
  <A value="1.6254E+07" />
  <B value="-0.073447" />
  <C value="0.14823" />
  <D value="0.62225" />
  <E value="-0.43277" />
  <Tmin units="K" value="80.15" />
  <Tmax units="K" value="261" />
  </HeatOfVaporization>
<SolidHeatCapacityCp name="Solid heat capacity" units="J/kmol/K">
  <eqno value="1" />
  <A value="40260" />
  <Tmin units="K" value="0" />
  <Tmax units="K" value="261.05" />
  </SolidHeatCapacityCp>
<LiquidHeatCapacityCp name="Liquid heat capacity" units="J/kmol/K">
  <eqno value="16" />
  <A value="64500" />
  <B value="-60.205" />
  <C value="9.9787" />
  <D value="0.0080434" />
  <E value="-0.000010929" />
  <Tmin units="K" value="90" />
  <Tmax units="K" value="150" />
  </LiquidHeatCapacityCp>
<IdealGasHeatCapacityCp name="Ideal gas heat capacity" units="J/kmol/K">
  <eqno value="16" />
  <A value="32859.57" />
  <B value="-604.7407" />
  <C value="10.91207" />
  <D value="-0.000287995" />
  <E value="2.632407E-08" />
  <Tmin units="K" value="50" />
  <Tmax units="K" value="1500" />
  </IdealGasHeatCapacityCp>
<SecondVirialCoefficient name="Second virial coefficient" units="m3/kmol">
  <eqno value="104" />
  <A value="0.062399" />
  <B value="-35.678" />
  <C value="-1.1646" />
  <D value="22.22" />
  <E value="-31.557" />
  <Tmin units="K" value="130.5" />
  <Tmax units="K" value="1500" />
  </SecondVirialCoefficient>
<LiquidViscosity name="Liquid viscosity" units="Pa.s">
  <eqno value="101" />
  <A value="-37.036" />
  <B value="815.78" />
  <C value="4.8971" />
  <D value="-0.000047646" />
  <E value="2" />
  <Tmin units="K" value="77.55" />
  <Tmax units="K" value="208.8" />
  </LiquidViscosity>
<VaporViscosity name="Vapour viscosity" units="Pa.s">
  <eqno value="102" />
  <A value="0.0000001896" />
  <B value="0.78539" />
  <C value="36.908" />
  <D value="-2041.9" />
  <Tmin units="K" value="80.15" />
  <Tmax units="K" value="1000" />
  </VaporViscosity>
<LiquidThermalConductivity name="Liquid thermal conductivity" units="W/m/K">
  <eqno value="16" />
  <A value="0.23255" />
  <B value="-678.09" />
  <C value="-6.5705" />
  <D value="-0.074977" />
  <E value="0.00025391" />
  <Tmin units="K" value="77.35" />
  <Tmax units="K" value="161.85" />
  </LiquidThermalConductivity>
<VaporThermalConductivity name="Vapour thermal conductivity" units="W/m/K">
  <eqno value="102" />
  <A value="0.0043907" />
  <B value="0.47832" />
  <C value="709.48" />
  <D value="233.72" />
  <Tmin units="K" value="161.85" />
  <Tmax units="K" value="1000" />
  </VaporThermalConductivity>
<SurfaceTension name="Surface tension" units="N/m">
  <eqno value="16" />
  <A value="-0.0083875" />
  <B value="70.417" />
  <C value="-4.4511" />
  <D value="0.011555" />
  <E value="-0.000053029" />
  <Tmin units="K" value="77.2" />
  <Tmax units="K" value="261" />
  </SurfaceTension>
<RPPHeatCapacityCp name="Ideal gas heat capacity (RPP)" units="J/kmol/K">
  <eqno value="100" />
  <A value="34139" />
  <B value="-31.67" />
  <C value="0.26033" />
  <D value="-0.00035752" />
  <E value="1.5074E-07" />
  <Tmin units="K" value="50" />
  <Tmax units="K" value="1000" />
  </RPPHeatCapacityCp>
<AntoineVaporPressure name="Antoine" units="Pa">
  <eqno value="10" />
  <A value="21.205" />
  <B value="1378.5" />
  <C value="-19.313" />
  <Tmin units="K" value="158.25" />
  <Tmax units="K" value="232.44" />
  </AntoineVaporPressure>
<LiquidViscosityRPS name="Liquid viscosity (RPS)" units="Pa.s">
  <eqno value="12" />
  <A value="-3.661" />
  <B value="-0.027987" />
  <Tmin units="K" value="77.55" />
  <Tmax units="K" value="208.8" />
  </LiquidViscosityRPS>
<COSTALDVolume name="COSTLD characteristic volume (V*)" units="m3/kmol" value="0.0888007" />
<DiameterLJ name="Lennard Jones diameter" units="m" value="4.892771E-10" />
<EnergyLJ name="Lennard Jones energy" units="K" value="84.53657" />
<RacketParameter name="Rackett parameter" units="_" value="0.245638" />
<FullerVolume name="Fuller et al. diffusion volume" units="_" value="18.33" />
<MatthiasCopemanC2 name="Mathias-Copeman C2" units="_" value="0" />
<Parachor name="Parachor" units="kg0.25.m3/s0.5/kmol" value="0.0135255" />
<SpecificGravity name="Specific gravity" units="_" value="1.25782" />
<Charge name="Charge" units="_" value="0" />
<CostaldAcentricFactor name="SRK acentric factor" units="_" value="0.224" />
<WilsonVolume name="Wilson volume" units="m3/kmol" value="0.0354" />
<UniquacR name="UNIQUAC r" units="_" value="1.1" />
<UniquacQ name="UNIQUAC q" units="_" value="1.27" />
<MatthiasCopemanC3 name="Mathias-Copeman C3" units="_" value="0" />
<ChaoSeaderAcentricFactor name="Chao-Seader acentric factor" units="_" value="0.224" />
<ChaoSeaderSolubilityParameter name="Chao-Seader solubility parameter" units="J0.5/m1.5" value="18740" />
<ChaoSeaderLiquidVolume name="Chao-Seader liquid volume" units="m3/kmol" value="0.0354" />
<Umr name="UMR">
  <group id="211" value="1" />
  </Umr>
<CAS name="CAS number" value="10028-15-6" />
<Smiles name="SMILES" value="O=[O+][O-]" />
</compound>

