<compound>
<LibraryIndex name="Index" value="544" />
<CompoundID name="Name" value="p-diisopropylbenzene" />
<StructureFormula name="Structure" value="(CH3)2CH(C6H4)CH(CH3)2" />
<Family name="Family" value="17" />
<CriticalTemperature name="Critical temperature" units="K" value="675" />
<CriticalPressure name="Critical pressure" units="Pa" value="2360000" />
<CriticalVolume name="Critical volume" units="m3/kmol" value="0.584" />
<CriticalCompressibility name="Critical compressibility factor" units="_" value="0.256" />
<NormalBoilingPointTemperature name="Normal boiling point" units="K" value="483.52" />
<NormalMeltingPointTemperature name="Melting point" units="K" value="256.08" />
<TriplePointTemperature name="Triple point temperature" units="K" value="256.08" />
<TriplePointPressure name="Triple point pressure" units="Pa" value="0.697953" />
<MolecularWeight name="Molecular weight" units="kg/kmol" value="162.2713" />
<LiquidVolumeAtNormalBoilingPoint name="Liquid molar volume at normal boiling point" units="m3/kmol" value="0.190236" />
<AcentricityFactor name="Acentric factor" units="_" value="0.476415" />
<RadiusOfGyration name="Radius of gyration" units="m" value="5.178E-10" />
<SolubilityParameter name="Solubility parameter" units="J0.5/m1.5" value="16930" />
<VanDerWaalsVolume name="Van der Waals volume" units="m3/kmol" value="0.101" />
<VanDerWaalsArea name="Van der Waals area" units="m2/kmol" value="1.404E+09" />
<HeatOfFormation name="IG heat of formation" units="J/kmol" value="-7.76E+07" />
<GibbsEnergyOfFormation name="IG Gibbs energy of formation" units="J/kmol" value="1.47804E+08" />
<AbsEntropy name="IG absolute entropy" units="J/kmol/K" value="488000" />
<HeatOfFusionAtMeltingPoint name="Heat of fusion at melting point" units="J/kmol" value="0" />
<MatthiasCopemanC1 name="Mathias-Copeman C1" units="_" value="1.3262" />
<HeatOfCombustion name="Standard net heat of combustion LHV" units="J/kmol" value="-6.77E+09" />
<SolidDensity name="Solid density" units="kmol/m3">
  <eqno value="2" />
  <A value="6.9021" />
  <B value="-0.0029994" />
  <C value="0" />
  <D value="0" />
  <E value="0" />
  <Tmin units="K" value="102.43" />
  <Tmax units="K" value="256.08" />
  </SolidDensity>
<LiquidDensity name="Liquid density" units="kmol/m3">
  <eqno value="105" />
  <A value="0.77801" />
  <B value="0.34547" />
  <C value="675" />
  <D value="0.38736" />
  <Tmin units="K" value="256.08" />
  <Tmax units="K" value="666.21" />
  </LiquidDensity>
<VaporPressure name="Vapour pressure" units="Pa">
  <eqno value="101" />
  <A value="121.6259" />
  <B value="-10711.76" />
  <C value="-14.56272" />
  <D value="8.944308E-06" />
  <E value="2" />
  <Tmin units="K" value="256.08" />
  <Tmax units="K" value="689" />
  </VaporPressure>
<HeatOfVaporization name="Heat of vaporization" units="J/kmol">
  <eqno value="106" />
  <A value="9.572101E+07" />
  <B value="2.166143" />
  <C value="-4.616074" />
  <D value="4.777254" />
  <E value="-1.852374" />
  <Tmin units="K" value="256.08" />
  <Tmax units="K" value="666.21" />
  </HeatOfVaporization>
<SolidHeatCapacityCp name="Solid heat capacity" units="J/kmol/K">
  <eqno value="100" />
  <A value="34130" />
  <B value="321.92" />
  <C value="9.2079" />
  <D value="-0.053989" />
  <E value="0.00010157" />
  <Tmin units="K" value="50" />
  <Tmax units="K" value="256.08" />
  </SolidHeatCapacityCp>
<LiquidHeatCapacityCp name="Liquid heat capacity" units="J/kmol/K">
  <eqno value="16" />
  <A value="-70570" />
  <B value="94.476" />
  <C value="11.349" />
  <D value="0.0048258" />
  <E value="-0.0000034771" />
  <Tmin units="K" value="256.08" />
  <Tmax units="K" value="483.65" />
  </LiquidHeatCapacityCp>
<IdealGasHeatCapacityCp name="Ideal gas heat capacity" units="J/kmol/K">
  <eqno value="16" />
  <A value="100830" />
  <B value="-531.56" />
  <C value="13.456" />
  <D value="0.000043333" />
  <E value="-2.4118E-08" />
  <Tmin units="K" value="300" />
  <Tmax units="K" value="1500" />
  </IdealGasHeatCapacityCp>
<SecondVirialCoefficient name="Second virial coefficient" units="m3/kmol">
  <eqno value="104" />
  <A value="0.34296" />
  <B value="-577.3" />
  <C value="-147.03" />
  <D value="-140880" />
  <E value="339020" />
  <Tmin units="K" value="344.5" />
  <Tmax units="K" value="2000" />
  </SecondVirialCoefficient>
<LiquidViscosity name="Liquid viscosity" units="Pa.s">
  <eqno value="101" />
  <A value="-8.9912" />
  <B value="1148.7" />
  <C value="-0.35833" />
  <D value="4.6037E-07" />
  <E value="2" />
  <Tmin units="K" value="256.08" />
  <Tmax units="K" value="573" />
  </LiquidViscosity>
<VaporViscosity name="Vapour viscosity" units="Pa.s">
  <eqno value="102" />
  <A value="8.0354E-07" />
  <B value="0.48062" />
  <C value="391.1" />
  <D value="176.97" />
  <Tmin units="K" value="483.65" />
  <Tmax units="K" value="1000" />
  </VaporViscosity>
<LiquidThermalConductivity name="Liquid thermal conductivity" units="W/m/K">
  <eqno value="16" />
  <A value="-0.043466" />
  <B value="-14.777" />
  <C value="-1.4776" />
  <D value="-0.00080068" />
  <E value="-0.0000006904" />
  <Tmin units="K" value="256.08" />
  <Tmax units="K" value="483.65" />
  </LiquidThermalConductivity>
<VaporThermalConductivity name="Vapour thermal conductivity" units="W/m/K">
  <eqno value="102" />
  <A value="0.31596" />
  <B value="-0.074042" />
  <C value="-318.59" />
  <D value="1928600" />
  <Tmin units="K" value="256.08" />
  <Tmax units="K" value="1000" />
  </VaporThermalConductivity>
<SurfaceTension name="Surface tension" units="N/m">
  <eqno value="16" />
  <A value="-0.01271" />
  <B value="60.745" />
  <C value="-3.2229" />
  <D value="0.00049535" />
  <E value="-0.0000035281" />
  <Tmin units="K" value="256.08" />
  <Tmax units="K" value="666.21" />
  </SurfaceTension>
<RPPHeatCapacityCp name="Ideal gas heat capacity (RPP)" units="J/kmol/K">
  <eqno value="4" />
  <A value="-44517" />
  <B value="1071.8" />
  <C value="-0.66372" />
  <D value="0.00015645" />
  <Tmin units="K" value="300" />
  <Tmax units="K" value="1500" />
  </RPPHeatCapacityCp>
<AntoineVaporPressure name="Antoine" units="Pa">
  <eqno value="10" />
  <A value="20.599" />
  <B value="3490" />
  <C value="-98.353" />
  <Tmin units="K" value="407.05" />
  <Tmax units="K" value="597.86" />
  </AntoineVaporPressure>
<LiquidViscosityRPS name="Liquid viscosity (RPS)" units="Pa.s">
  <eqno value="12" />
  <A value="-4.216" />
  <B value="-0.0097312" />
  <Tmin units="K" value="256.08" />
  <Tmax units="K" value="483.65" />
  </LiquidViscosityRPS>
<COSTALDVolume name="COSTLD characteristic volume (V*)" units="m3/kmol" value="0.563273" />
<DiameterLJ name="Lennard Jones diameter" units="m" value="8.001313E-10" />
<EnergyLJ name="Lennard Jones energy" units="K" value="326.4983" />
<RacketParameter name="Rackett parameter" units="_" value="0.256" />
<FullerVolume name="Fuller et al. diffusion volume" units="_" value="214.08" />
<MatthiasCopemanC2 name="Mathias-Copeman C2" units="_" value="-1.118" />
<Parachor name="Parachor" units="kg0.25.m3/s0.5/kmol" value="0.0776962" />
<SpecificGravity name="Specific gravity" units="_" value="0.861206" />
<Charge name="Charge" units="_" value="0" />
<CostaldAcentricFactor name="SRK acentric factor" units="_" value="0.390023" />
<WilsonVolume name="Wilson volume" units="m3/kmol" value="0.190236" />
<UniquacR name="UNIQUAC r" units="_" value="7.3538" />
<UniquacQ name="UNIQUAC q" units="_" value="5.688" />
<ApiSrkS2 name="API-SRK s2" units="_" value="0.022869" />
<MatthiasCopemanC3 name="Mathias-Copeman C3" units="_" value="2.0168" />
<ChaoSeaderAcentricFactor name="Chao-Seader acentric factor" units="_" value="0.390023" />
<ChaoSeaderSolubilityParameter name="Chao-Seader solubility parameter" units="J0.5/m1.5" value="16930" />
<ChaoSeaderLiquidVolume name="Chao-Seader liquid volume" units="m3/kmol" value="0.190236" />
<UnifacVLE name="UNIFAC">
  <group id="1" value="4" />
  <group id="10" value="4" />
  <group id="14" value="2" />
  </UnifacVLE>
<UnifacLLE name="UNIFAC-LLE">
  <group id="1" value="4" />
  <group id="9" value="4" />
  <group id="13" value="2" />
  </UnifacLLE>
<Asog name="ASOG">
  <group id="1" value="4" />
  <group id="3" value="2" />
  <group id="10" value="4" />
  <group id="11" value="2" />
  </Asog>
<GCmethod name="PPR78">
  <group id="1" value="4" />
  <group id="3" value="2" />
  <group id="7" value="4" />
  <group id="8" value="2" />
  </GCmethod>
<Umr name="UMR">
  <group id="1" value="4" />
  <group id="10" value="4" />
  <group id="14" value="2" />
  </Umr>
<ModifiedUnifac name="Modified UNIFAC">
  <group id="1" value="4" />
  <group id="9" value="4" />
  <group id="13" value="2" />
  </ModifiedUnifac>
<CAS name="CAS number" value="100-18-5" />
<Smiles name="SMILES" value="c1(C(C)C)ccc(C(C)C)cc1" />
</compound>

