<compound>
<LibraryIndex name="Index" value="1486" />
<CompoundID name="Name" value="p-diisopropylbenzene hydroperoxide" />
<StructureFormula name="Structure" value="CH(CH3)2C6H4C(CH3)2OOH" />
<Family name="Family" value="64" />
<CriticalTemperature name="Critical temperature" units="K" value="810" />
<CriticalPressure name="Critical pressure" units="Pa" value="2490000" />
<CriticalVolume name="Critical volume" units="m3/kmol" value="0.619" />
<CriticalCompressibility name="Critical compressibility factor" units="_" value="0.247" />
<NormalBoilingPointTemperature name="Normal boiling point" units="K" value="572" />
<NormalMeltingPointTemperature name="Melting point" units="K" value="308.25" />
<TriplePointTemperature name="Triple point temperature" units="K" value="308.25" />
<TriplePointPressure name="Triple point pressure" units="Pa" value="0.00283085" />
<MolecularWeight name="Molecular weight" units="kg/kmol" value="194.27" />
<LiquidVolumeAtNormalBoilingPoint name="Liquid molar volume at normal boiling point" units="m3/kmol" value="0.197636" />
<AcentricityFactor name="Acentric factor" units="_" value="0.927925" />
<RadiusOfGyration name="Radius of gyration" units="m" value="5.383E-10" />
<SolubilityParameter name="Solubility parameter" units="J0.5/m1.5" value="22170" />
<VanDerWaalsVolume name="Van der Waals volume" units="m3/kmol" value="0.11985" />
<VanDerWaalsArea name="Van der Waals area" units="m2/kmol" value="1.571E+09" />
<HeatOfFormation name="IG heat of formation" units="J/kmol" value="-1.859E+08" />
<GibbsEnergyOfFormation name="IG Gibbs energy of formation" units="J/kmol" value="7.92E+07" />
<AbsEntropy name="IG absolute entropy" units="J/kmol/K" value="559900" />
<HeatOfCombustion name="Standard net heat of combustion LHV" units="J/kmol" value="-6.612E+09" />
<SolidDensity name="Solid density" units="kmol/m3">
  <eqno value="100" />
  <A value="6.4766" />
  <B value="-0.0026263" />
  <C value="0" />
  <D value="0" />
  <E value="0" />
  <Tmin units="K" value="123.3" />
  <Tmax units="K" value="308.25" />
  </SolidDensity>
<LiquidDensity name="Liquid density" units="kmol/m3">
  <eqno value="105" />
  <A value="0.36973" />
  <B value="0.24721" />
  <C value="810" />
  <D value="0.28571" />
  <Tmin units="K" value="293.15" />
  <Tmax units="K" value="810" />
  </LiquidDensity>
<VaporPressure name="Vapour pressure" units="Pa">
  <eqno value="101" />
  <A value="120.96" />
  <B value="-16204" />
  <C value="-12.958" />
  <D value="1.9695E-18" />
  <E value="6" />
  <Tmin units="K" value="308.25" />
  <Tmax units="K" value="810" />
  </VaporPressure>
<HeatOfVaporization name="Heat of vaporization" units="J/kmol">
  <eqno value="106" />
  <A value="1.2076E+08" />
  <B value="0.40019" />
  <C value="0" />
  <D value="0" />
  <E value="0" />
  <Tmin units="K" value="308.25" />
  <Tmax units="K" value="810" />
  </HeatOfVaporization>
<SolidHeatCapacityCp name="Solid heat capacity" units="J/kmol/K">
  <eqno value="102" />
  <A value="3280" />
  <B value="0.79267" />
  <C value="0" />
  <D value="0" />
  <Tmin units="K" value="50" />
  <Tmax units="K" value="308.25" />
  </SolidHeatCapacityCp>
<LiquidHeatCapacityCp name="Liquid heat capacity" units="J/kmol/K">
  <eqno value="100" />
  <A value="112320" />
  <B value="756.98" />
  <C value="0" />
  <D value="0" />
  <E value="0" />
  <Tmin units="K" value="405" />
  <Tmax units="K" value="607.5" />
  </LiquidHeatCapacityCp>
<IdealGasHeatCapacityCp name="Ideal gas heat capacity" units="J/kmol/K">
  <eqno value="16" />
  <A value="114861.3" />
  <B value="-500" />
  <C value="13.5" />
  <D value="0" />
  <E value="0" />
  <Tmin units="K" value="255" />
  <Tmax units="K" value="1500" />
  </IdealGasHeatCapacityCp>
<SecondVirialCoefficient name="Second virial coefficient" units="m3/kmol">
  <eqno value="104" />
  <A value="0.46502" />
  <B value="-443.71" />
  <C value="-4.7471E+08" />
  <D value="-5.5839E+21" />
  <E value="5.1794E+23" />
  <Tmin units="K" value="405" />
  <Tmax units="K" value="1500" />
  </SecondVirialCoefficient>
<VaporViscosity name="Vapour viscosity" units="Pa.s">
  <eqno value="102" />
  <A value="3.8571E-08" />
  <B value="0.87768" />
  <C value="57.304" />
  <D value="0" />
  <Tmin units="K" value="308.25" />
  <Tmax units="K" value="1000" />
  </VaporViscosity>
<LiquidThermalConductivity name="Liquid thermal conductivity" units="W/m/K">
  <eqno value="100" />
  <A value="0.19251" />
  <B value="-0.00017182" />
  <C value="0" />
  <D value="0" />
  <E value="0" />
  <Tmin units="K" value="308.25" />
  <Tmax units="K" value="616" />
  </LiquidThermalConductivity>
<VaporThermalConductivity name="Vapour thermal conductivity" units="W/m/K">
  <eqno value="102" />
  <A value="0.00017152" />
  <B value="0.91622" />
  <C value="798.73" />
  <D value="0" />
  <Tmin units="K" value="616" />
  <Tmax units="K" value="1000" />
  </VaporThermalConductivity>
<SurfaceTension name="Surface tension" units="N/m">
  <eqno value="106" />
  <A value="0.059108" />
  <B value="1.2749" />
  <C value="0" />
  <D value="0" />
  <E value="0" />
  <Tmin units="K" value="308.25" />
  <Tmax units="K" value="810" />
  </SurfaceTension>
<AntoineVaporPressure name="Antoine" units="Pa">
  <eqno value="10" />
  <A value="22.28082" />
  <B value="4011.684" />
  <C value="-46.8171" />
  <Tmin units="K" value="457.6" />
  <Tmax units="K" value="810" />
  </AntoineVaporPressure>
<FullerVolume name="Fuller et al. diffusion volume" units="_" value="226.3" />
<Charge name="Charge" units="_" value="0" />
<CostaldAcentricFactor name="SRK acentric factor" units="_" value="0.927925" />
<WilsonVolume name="Wilson volume" units="m3/kmol" value="0.197636" />
<UniquacR name="UNIQUAC r" units="_" value="8.0389" />
<UniquacQ name="UNIQUAC q" units="_" value="6.356999" />
<ChaoSeaderAcentricFactor name="Chao-Seader acentric factor" units="_" value="0.927925" />
<ChaoSeaderSolubilityParameter name="Chao-Seader solubility parameter" units="J0.5/m1.5" value="22170" />
<ChaoSeaderLiquidVolume name="Chao-Seader liquid volume" units="m3/kmol" value="0.197636" />
<UnifacVLE name="UNIFAC">
  <group id="1" value="4" />
  <group id="3" value="1" />
  <group id="10" value="4" />
  <group id="11" value="2" />
  <group id="133" value="1" />
  </UnifacVLE>
<UnifacLLE name="UNIFAC-LLE">
  <group id="1" value="4" />
  <group id="3" value="1" />
  <group id="9" value="4" />
  <group id="10" value="2" />
  </UnifacLLE>
<Asog name="ASOG">
  <group id="1" value="4" />
  <group id="3" value="1" />
  <group id="10" value="4" />
  <group id="11" value="2" />
  </Asog>
<GCmethod name="PPR78">
  <group id="1" value="4" />
  <group id="3" value="1" />
  <group id="7" value="4" />
  <group id="8" value="2" />
  </GCmethod>
<Umr name="UMR">
  <group id="1" value="4" />
  <group id="3" value="1" />
  <group id="10" value="4" />
  <group id="11" value="2" />
  </Umr>
<ModifiedUnifac name="Modified UNIFAC">
  <group id="1" value="4" />
  <group id="3" value="1" />
  <group id="9" value="4" />
  <group id="10" value="2" />
  </ModifiedUnifac>
<CAS name="CAS number" value="98-49-7" />
<Smiles name="SMILES" value="CC(C)c1ccc(cc1)C(C)(C)OO" />
</compound>

