<compound>
<LibraryIndex name="Index" value="507" />
<CompoundID name="Name" value="p-xylene" />
<StructureFormula name="Structure" value="CH3(C6H4)CH3" />
<Family name="Family" value="17" />
<CriticalTemperature name="Critical temperature" units="K" value="616.2" />
<CriticalPressure name="Critical pressure" units="Pa" value="3511000" />
<CriticalVolume name="Critical volume" units="m3/kmol" value="0.378" />
<CriticalCompressibility name="Critical compressibility factor" units="_" value="0.259" />
<NormalBoilingPointTemperature name="Normal boiling point" units="K" value="411.53" />
<NormalMeltingPointTemperature name="Melting point" units="K" value="286.41" />
<TriplePointTemperature name="Triple point temperature" units="K" value="286.41" />
<TriplePointPressure name="Triple point pressure" units="Pa" value="575.533" />
<MolecularWeight name="Molecular weight" units="kg/kmol" value="106.165" />
<LiquidVolumeAtNormalBoilingPoint name="Liquid molar volume at normal boiling point" units="m3/kmol" value="0.12393" />
<AcentricityFactor name="Acentric factor" units="_" value="0.322" />
<RadiusOfGyration name="Radius of gyration" units="m" value="3.831E-10" />
<SolubilityParameter name="Solubility parameter" units="J0.5/m1.5" value="17910" />
<DipoleMoment name="Dipole moment" units="Coulomb.m" value="0" />
<VanDerWaalsVolume name="Van der Waals volume" units="m3/kmol" value="0.07066" />
<VanDerWaalsArea name="Van der Waals area" units="m2/kmol" value="8.84E+08" />
<HeatOfFormation name="IG heat of formation" units="J/kmol" value="1.803E+07" />
<GibbsEnergyOfFormation name="IG Gibbs energy of formation" units="J/kmol" value="1.214E+08" />
<AbsEntropy name="IG absolute entropy" units="J/kmol/K" value="352165" />
<HeatOfFusionAtMeltingPoint name="Heat of fusion at melting point" units="J/kmol" value="1.711E+07" />
<MatthiasCopemanC1 name="Mathias-Copeman C1" units="_" value="1.0563" />
<HeatOfCombustion name="Standard net heat of combustion LHV" units="J/kmol" value="-4.333E+09" />
<SolidDensity name="Solid density" units="kmol/m3">
  <eqno value="2" />
  <A value="15.9" />
  <B value="-0.021882" />
  <Tmin units="K" value="273.25" />
  <Tmax units="K" value="286.41" />
  </SolidDensity>
<LiquidDensity name="Liquid density" units="kmol/m3">
  <eqno value="105" />
  <A value="0.67752" />
  <B value="0.25887" />
  <C value="616.2" />
  <D value="0.27596" />
  <Tmin units="K" value="286.41" />
  <Tmax units="K" value="616.2" />
  </LiquidDensity>
<VaporPressure name="Vapour pressure" units="Pa">
  <eqno value="101" />
  <A value="97.352" />
  <B value="-8082.1" />
  <C value="-11.197" />
  <D value="0.0000072605" />
  <E value="2" />
  <Tmin units="K" value="282.99" />
  <Tmax units="K" value="616.23" />
  </VaporPressure>
<HeatOfVaporization name="Heat of vaporization" units="J/kmol">
  <eqno value="106" />
  <A value="5.6332E+07" />
  <B value="0.37965" />
  <C value="0.42395" />
  <D value="-0.85683" />
  <E value="0.43704" />
  <Tmin units="K" value="286.41" />
  <Tmax units="K" value="616.2" />
  </HeatOfVaporization>
<SolidHeatCapacityCp name="Solid heat capacity" units="J/kmol/K">
  <eqno value="100" />
  <A value="-19759" />
  <B value="1635.7" />
  <C value="-9.6261" />
  <D value="0.031794" />
  <E value="-0.000036966" />
  <Tmin units="K" value="19.11" />
  <Tmax units="K" value="286.41" />
  </SolidHeatCapacityCp>
<LiquidHeatCapacityCp name="Liquid heat capacity" units="J/kmol/K">
  <eqno value="16" />
  <A value="63084" />
  <B value="-343.38" />
  <C value="13.438" />
  <D value="-0.0033851" />
  <E value="0.0000045592" />
  <Tmin units="K" value="286.4" />
  <Tmax units="K" value="600" />
  </LiquidHeatCapacityCp>
<IdealGasHeatCapacityCp name="Ideal gas heat capacity" units="J/kmol/K">
  <eqno value="16" />
  <A value="62397" />
  <B value="-585.6" />
  <C value="13.025" />
  <D value="0.0000037921" />
  <E value="-1.7044E-08" />
  <Tmin units="K" value="200" />
  <Tmax units="K" value="1500" />
  </IdealGasHeatCapacityCp>
<SecondVirialCoefficient name="Second virial coefficient" units="m3/kmol">
  <eqno value="104" />
  <A value="-0.06505" />
  <B value="248.78" />
  <C value="-160.39" />
  <D value="115610" />
  <E value="-382400" />
  <Tmin units="K" value="338.9" />
  <Tmax units="K" value="1500" />
  </SecondVirialCoefficient>
<LiquidViscosity name="Liquid viscosity" units="Pa.s">
  <eqno value="101" />
  <A value="-23.916" />
  <B value="1499.8" />
  <C value="2.0719" />
  <D value="-0.0000037065" />
  <E value="2" />
  <Tmin units="K" value="286.41" />
  <Tmax units="K" value="493.6" />
  </LiquidViscosity>
<VaporViscosity name="Vapour viscosity" units="Pa.s">
  <eqno value="102" />
  <A value="2.4281E-08" />
  <B value="0.95421" />
  <C value="-91.329" />
  <D value="17547" />
  <Tmin units="K" value="273.15" />
  <Tmax units="K" value="1273.15" />
  </VaporViscosity>
<LiquidThermalConductivity name="Liquid thermal conductivity" units="W/m/K">
  <eqno value="16" />
  <A value="0.00066881" />
  <B value="-122.94" />
  <C value="-0.60875" />
  <D value="-0.0037322" />
  <E value="9.7446E-07" />
  <Tmin units="K" value="286.41" />
  <Tmax units="K" value="413.1" />
  </LiquidThermalConductivity>
<VaporThermalConductivity name="Vapour thermal conductivity" units="W/m/K">
  <eqno value="102" />
  <A value="0.0000001261" />
  <B value="1.8916" />
  <C value="-453.43" />
  <D value="111720" />
  <Tmin units="K" value="286.41" />
  <Tmax units="K" value="1000" />
  </VaporThermalConductivity>
<SurfaceTension name="Surface tension" units="N/m">
  <eqno value="16" />
  <A value="-0.0080188" />
  <B value="66.097" />
  <C value="-3.4878" />
  <D value="0.0018353" />
  <E value="-0.0000068516" />
  <Tmin units="K" value="273.1" />
  <Tmax units="K" value="616.2" />
  </SurfaceTension>
<RPPHeatCapacityCp name="Ideal gas heat capacity (RPP)" units="J/kmol/K">
  <eqno value="100" />
  <A value="34197" />
  <B value="123.96" />
  <C value="0.98194" />
  <D value="-0.0013905" />
  <E value="5.6006E-07" />
  <Tmin units="K" value="50" />
  <Tmax units="K" value="1000" />
  </RPPHeatCapacityCp>
<RelativeStaticPermittivity name="Relative static permittivity" units="_">
  <eqno value="120" />
  <A value="-1.717467" />
  <B value="-1150" />
  <C value="-6.9" />
  <Tmin units="K" value="274.15" />
  <Tmax units="K" value="444.15" />
  </RelativeStaticPermittivity>
<AntoineVaporPressure name="Antoine" units="Pa">
  <eqno value="10" />
  <A value="21.116" />
  <B value="3447.8" />
  <C value="-51.968" />
  <Tmin units="K" value="370.2" />
  <Tmax units="K" value="553" />
  </AntoineVaporPressure>
<LiquidViscosityRPS name="Liquid viscosity (RPS)" units="Pa.s">
  <eqno value="13" />
  <A value="-1.8388" />
  <B value="-0.025762" />
  <C value="0.000023732" />
  <Tmin units="K" value="286.41" />
  <Tmax units="K" value="413.1" />
  </LiquidViscosityRPS>
<COSTALDVolume name="COSTLD characteristic volume (V*)" units="m3/kmol" value="0.374" />
<DiameterLJ name="Lennard Jones diameter" units="m" value="6.825207E-10" />
<EnergyLJ name="Lennard Jones energy" units="K" value="310.8236" />
<RacketParameter name="Rackett parameter" units="_" value="0.2589" />
<FullerVolume name="Fuller et al. diffusion volume" units="_" value="132" />
<MatthiasCopemanC2 name="Mathias-Copeman C2" units="_" value="-0.89953" />
<Parachor name="Parachor" units="kg0.25.m3/s0.5/kmol" value="0.0503" />
<SpecificGravity name="Specific gravity" units="_" value="0.864229" />
<Charge name="Charge" units="_" value="0" />
<CostaldAcentricFactor name="SRK acentric factor" units="_" value="0.32159" />
<WilsonVolume name="Wilson volume" units="m3/kmol" value="0.123921" />
<UniquacR name="UNIQUAC r" units="_" value="4.66" />
<UniquacQ name="UNIQUAC q" units="_" value="3.54" />
<UniquacQP name="UNIQUAC q'" units="_" value="3.54" />
<ApiSrkS2 name="API-SRK s2" units="_" value="-0.010556" />
<MatthiasCopemanC3 name="Mathias-Copeman C3" units="_" value="1.7717" />
<ChaoSeaderAcentricFactor name="Chao-Seader acentric factor" units="_" value="0.2969" />
<ChaoSeaderSolubilityParameter name="Chao-Seader solubility parameter" units="J0.5/m1.5" value="17939.04" />
<ChaoSeaderLiquidVolume name="Chao-Seader liquid volume" units="m3/kmol" value="0.124" />
<UnifacVLE name="UNIFAC">
  <group id="10" value="4" />
  <group id="12" value="2" />
  </UnifacVLE>
<UnifacLLE name="UNIFAC-LLE">
  <group id="9" value="4" />
  <group id="11" value="2" />
  </UnifacLLE>
<Asog name="ASOG">
  <group id="1" value="2" />
  <group id="10" value="4" />
  <group id="11" value="2" />
  </Asog>
<GCmethod name="PPR78">
  <group id="1" value="2" />
  <group id="7" value="4" />
  <group id="8" value="2" />
  </GCmethod>
<Umr name="UMR">
  <group id="10" value="4" />
  <group id="12" value="2" />
  </Umr>
<ModifiedUnifac name="Modified UNIFAC">
  <group id="9" value="4" />
  <group id="11" value="2" />
  </ModifiedUnifac>
<CAS name="CAS number" value="106-42-3" />
<Smiles name="SMILES" value="c1(C)ccc(C)cc1" />
</compound>

