<compound>
<LibraryIndex name="Index" value="1272" />
<CompoundID name="Name" value="palmitic acid" />
<StructureFormula name="Structure" value="CH3(CH2)14COOH" />
<Family name="Family" value="50" />
<CriticalTemperature name="Critical temperature" units="K" value="785" />
<CriticalPressure name="Critical pressure" units="Pa" value="1490000" />
<CriticalVolume name="Critical volume" units="m3/kmol" value="1.015" />
<CriticalCompressibility name="Critical compressibility factor" units="_" value="0.232" />
<NormalBoilingPointTemperature name="Normal boiling point" units="K" value="624.15" />
<NormalMeltingPointTemperature name="Melting point" units="K" value="335.66" />
<TriplePointTemperature name="Triple point temperature" units="K" value="335.66" />
<TriplePointPressure name="Triple point pressure" units="Pa" value="0.0183" />
<MolecularWeight name="Molecular weight" units="kg/kmol" value="256.424" />
<LiquidVolumeAtNormalBoilingPoint name="Liquid molar volume at normal boiling point" units="m3/kmol" value="0.3004" />
<AcentricityFactor name="Acentric factor" units="_" value="0.991904" />
<RadiusOfGyration name="Radius of gyration" units="m" value="7.897E-10" />
<SolubilityParameter name="Solubility parameter" units="J0.5/m1.5" value="19150" />
<DipoleMoment name="Dipole moment" units="Coulomb.m" value="2.54E-30" />
<VanDerWaalsVolume name="Van der Waals volume" units="m3/kmol" value="0.1764" />
<VanDerWaalsArea name="Van der Waals area" units="m2/kmol" value="2.408E+09" />
<HeatOfFormation name="IG heat of formation" units="J/kmol" value="-7.23E+08" />
<GibbsEnergyOfFormation name="IG Gibbs energy of formation" units="J/kmol" value="-2.6E+08" />
<AbsEntropy name="IG absolute entropy" units="J/kmol/K" value="833000" />
<HeatOfFusionAtMeltingPoint name="Heat of fusion at melting point" units="J/kmol" value="5.3711E+07" />
<HeatOfCombustion name="Standard net heat of combustion LHV" units="J/kmol" value="-9.275E+09" />
<SolidDensity name="Solid density" units="kmol/m3">
  <eqno value="100" />
  <A value="4.3404" />
  <B value="-0.001499" />
  <C value="0" />
  <D value="0" />
  <E value="0" />
  <Tmin units="K" value="266.26" />
  <Tmax units="K" value="335.66" />
  </SolidDensity>
<LiquidDensity name="Liquid density" units="kmol/m3">
  <eqno value="105" />
  <A value="0.23234" />
  <B value="0.23765" />
  <C value="785" />
  <D value="0.28571" />
  <Tmin units="K" value="335.66" />
  <Tmax units="K" value="785" />
  </LiquidDensity>
<VaporPressure name="Vapour pressure" units="Pa">
  <eqno value="101" />
  <A value="185.2" />
  <B value="-20925" />
  <C value="-21.813" />
  <D value="4.5682E-18" />
  <E value="6" />
  <Tmin units="K" value="335.66" />
  <Tmax units="K" value="785" />
  </VaporPressure>
<HeatOfVaporization name="Heat of vaporization" units="J/kmol">
  <eqno value="106" />
  <A value="1.414E+08" />
  <B value="-0.21125" />
  <C value="2.0707" />
  <D value="-1.4835" />
  <E value="0" />
  <Tmin units="K" value="335.66" />
  <Tmax units="K" value="785" />
  </HeatOfVaporization>
<SolidHeatCapacityCp name="Solid heat capacity" units="J/kmol/K">
  <eqno value="100" />
  <A value="-60017" />
  <B value="3817.6" />
  <C value="-17.274" />
  <D value="0.034908" />
  <E value="0" />
  <Tmin units="K" value="40" />
  <Tmax units="K" value="320" />
  </SolidHeatCapacityCp>
<LiquidHeatCapacityCp name="Liquid heat capacity" units="J/kmol/K">
  <eqno value="100" />
  <A value="353400" />
  <B value="133.66" />
  <C value="1.551" />
  <D value="0" />
  <E value="0" />
  <Tmin units="K" value="335.66" />
  <Tmax units="K" value="624.15" />
  </LiquidHeatCapacityCp>
<IdealGasHeatCapacityCp name="Ideal gas heat capacity" units="J/kmol/K">
  <eqno value="107" />
  <A value="284750" />
  <B value="864940" />
  <C value="1687.8" />
  <D value="611070" />
  <E value="767.35" />
  <Tmin units="K" value="300" />
  <Tmax units="K" value="1500" />
  </IdealGasHeatCapacityCp>
<LiquidViscosity name="Liquid viscosity" units="Pa.s">
  <eqno value="101" />
  <A value="-22.747" />
  <B value="3128.1" />
  <C value="1.4996" />
  <D value="0" />
  <E value="0" />
  <Tmin units="K" value="335.66" />
  <Tmax units="K" value="624.15" />
  </LiquidViscosity>
<VaporViscosity name="Vapour viscosity" units="Pa.s">
  <eqno value="102" />
  <A value="4.701E-08" />
  <B value="0.8296" />
  <C value="92.132" />
  <D value="0" />
  <Tmin units="K" value="335.66" />
  <Tmax units="K" value="1000" />
  </VaporViscosity>
<LiquidThermalConductivity name="Liquid thermal conductivity" units="W/m/K">
  <eqno value="100" />
  <A value="0.223" />
  <B value="-0.0002" />
  <C value="0" />
  <D value="0" />
  <E value="0" />
  <Tmin units="K" value="335.66" />
  <Tmax units="K" value="624.15" />
  </LiquidThermalConductivity>
<VaporThermalConductivity name="Vapour thermal conductivity" units="W/m/K">
  <eqno value="102" />
  <A value="2.0773E-08" />
  <B value="2.3203" />
  <C value="787" />
  <D value="0" />
  <Tmin units="K" value="624.15" />
  <Tmax units="K" value="1000" />
  </VaporThermalConductivity>
<SurfaceTension name="Surface tension" units="N/m">
  <eqno value="106" />
  <A value="0.056927" />
  <B value="1.2191" />
  <C value="0" />
  <D value="0" />
  <E value="0" />
  <Tmin units="K" value="335.66" />
  <Tmax units="K" value="785" />
  </SurfaceTension>
<AntoineVaporPressure name="Antoine" units="Pa">
  <eqno value="10" />
  <A value="22.12552" />
  <B value="5092.846" />
  <C value="-142.098" />
  <Tmin units="K" value="335" />
  <Tmax units="K" value="785" />
  </AntoineVaporPressure>
<FullerVolume name="Fuller et al. diffusion volume" units="_" value="340.54" />
<Parachor name="Parachor" units="kg0.25.m3/s0.5/kmol" value="0.122577" />
<SpecificGravity name="Specific gravity" units="_" value="0.852" />
<Charge name="Charge" units="_" value="0" />
<CostaldAcentricFactor name="SRK acentric factor" units="_" value="0.991904" />
<WilsonVolume name="Wilson volume" units="m3/kmol" value="0.3004" />
<UniquacR name="UNIQUAC r" units="_" value="11.644" />
<UniquacQ name="UNIQUAC q" units="_" value="9.632" />
<ChaoSeaderAcentricFactor name="Chao-Seader acentric factor" units="_" value="0.991904" />
<ChaoSeaderSolubilityParameter name="Chao-Seader solubility parameter" units="J0.5/m1.5" value="19150" />
<ChaoSeaderLiquidVolume name="Chao-Seader liquid volume" units="m3/kmol" value="0.3004" />
<UnifacVLE name="UNIFAC">
  <group id="1" value="1" />
  <group id="2" value="14" />
  <group id="43" value="1" />
  </UnifacVLE>
<UnifacLLE name="UNIFAC-LLE">
  <group id="1" value="1" />
  <group id="2" value="14" />
  <group id="23" value="1" />
  </UnifacLLE>
<Asog name="ASOG">
  <group id="1" value="1" />
  <group id="2" value="14" />
  <group id="24" value="1" />
  </Asog>
<Umr name="UMR">
  <group id="1" value="1" />
  <group id="2" value="14" />
  <group id="43" value="1" />
  </Umr>
<ModifiedUnifac name="Modified UNIFAC">
  <group id="1" value="1" />
  <group id="2" value="14" />
  <group id="42" value="1" />
  </ModifiedUnifac>
<CAS name="CAS number" value="57-10-3" />
<Smiles name="SMILES" value="CCCCCCCCCCCCCCCC(=O)O" />
</compound>

