<compound>
<LibraryIndex name="Index" value="1007" />
<CompoundID name="Name" value="pentanal" />
<StructureFormula name="Structure" value="CH3(CH2)3CHO" />
<Family name="Family" value="25" />
<CriticalTemperature name="Critical temperature" units="K" value="554" />
<CriticalPressure name="Critical pressure" units="Pa" value="3500000" />
<CriticalVolume name="Critical volume" units="m3/kmol" value="0.316" />
<CriticalCompressibility name="Critical compressibility factor" units="_" value="0.264" />
<NormalBoilingPointTemperature name="Normal boiling point" units="K" value="376.15" />
<NormalMeltingPointTemperature name="Melting point" units="K" value="190.15" />
<TriplePointTemperature name="Triple point temperature" units="K" value="182" />
<TriplePointPressure name="Triple point pressure" units="Pa" value="0.0522823" />
<MolecularWeight name="Molecular weight" units="kg/kmol" value="86.1323" />
<LiquidVolumeAtNormalBoilingPoint name="Liquid molar volume at normal boiling point" units="m3/kmol" value="0.107035" />
<AcentricityFactor name="Acentric factor" units="_" value="0.390803" />
<RadiusOfGyration name="Radius of gyration" units="m" value="3.516E-10" />
<SolubilityParameter name="Solubility parameter" units="J0.5/m1.5" value="18440" />
<DipoleMoment name="Dipole moment" units="Coulomb.m" value="8.57E-30" />
<VanDerWaalsVolume name="Van der Waals volume" units="m3/kmol" value="0.0595" />
<VanDerWaalsArea name="Van der Waals area" units="m2/kmol" value="8.54E+08" />
<HeatOfFormation name="IG heat of formation" units="J/kmol" value="-2.2669E+08" />
<GibbsEnergyOfFormation name="IG Gibbs energy of formation" units="J/kmol" value="-1.0711E+08" />
<AbsEntropy name="IG absolute entropy" units="J/kmol/K" value="382890" />
<HeatOfFusionAtMeltingPoint name="Heat of fusion at melting point" units="J/kmol" value="1.5E+07" />
<MatthiasCopemanC1 name="Mathias-Copeman C1" units="_" value="1.07" />
<HeatOfCombustion name="Standard net heat of combustion LHV" units="J/kmol" value="-2.91E+09" />
<SolidDensity name="Solid density" units="kmol/m3">
  <eqno value="2" />
  <A value="13.416" />
  <B value="-0.0086288" />
  <C value="0" />
  <D value="0" />
  <E value="0" />
  <Tmin units="K" value="72.8" />
  <Tmax units="K" value="182" />
  </SolidDensity>
<LiquidDensity name="Liquid density" units="kmol/m3">
  <eqno value="105" />
  <A value="0.76227" />
  <B value="0.25072" />
  <C value="566.11" />
  <D value="0.27912" />
  <Tmin units="K" value="182" />
  <Tmax units="K" value="566.1" />
  </LiquidDensity>
<VaporPressure name="Vapour pressure" units="Pa">
  <eqno value="101" />
  <A value="92.63614" />
  <B value="-7428.499" />
  <C value="-10.51804" />
  <D value="7.160109E-06" />
  <E value="2" />
  <Tmin units="K" value="182" />
  <Tmax units="K" value="566.1" />
  </VaporPressure>
<HeatOfVaporization name="Heat of vaporization" units="J/kmol">
  <eqno value="106" />
  <A value="6.99504E+07" />
  <B value="0.991037" />
  <C value="0.252443" />
  <D value="-1.761713" />
  <E value="0.936026" />
  <Tmin units="K" value="182" />
  <Tmax units="K" value="545.88" />
  </HeatOfVaporization>
<SolidHeatCapacityCp name="Solid heat capacity" units="J/kmol/K">
  <eqno value="100" />
  <A value="-17544" />
  <B value="1682.5" />
  <C value="-12.848" />
  <D value="0.067016" />
  <E value="-0.00013817" />
  <Tmin units="K" value="80" />
  <Tmax units="K" value="150" />
  </SolidHeatCapacityCp>
<LiquidHeatCapacityCp name="Liquid heat capacity" units="J/kmol/K">
  <eqno value="16" />
  <A value="156770" />
  <B value="199.89" />
  <C value="4.2571" />
  <D value="0.024547" />
  <E value="-0.000022679" />
  <Tmin units="K" value="200" />
  <Tmax units="K" value="424.57" />
  </LiquidHeatCapacityCp>
<IdealGasHeatCapacityCp name="Ideal gas heat capacity" units="J/kmol/K">
  <eqno value="16" />
  <A value="101560" />
  <B value="-929.74" />
  <C value="13.391" />
  <D value="-0.0005525" />
  <E value="1.6606E-07" />
  <Tmin units="K" value="200" />
  <Tmax units="K" value="1500" />
  </IdealGasHeatCapacityCp>
<SecondVirialCoefficient name="Second virial coefficient" units="m3/kmol">
  <eqno value="104" />
  <A value="0.19709" />
  <B value="-224.42" />
  <C value="-40.148" />
  <D value="-19532" />
  <E value="30096" />
  <Tmin units="K" value="283.05" />
  <Tmax units="K" value="1500" />
  </SecondVirialCoefficient>
<LiquidViscosity name="Liquid viscosity" units="Pa.s">
  <eqno value="101" />
  <A value="-10.884" />
  <B value="982.07" />
  <C value="-0.00046989" />
  <D value="2.2767E-08" />
  <E value="2" />
  <Tmin units="K" value="182" />
  <Tmax units="K" value="450" />
  </LiquidViscosity>
<VaporViscosity name="Vapour viscosity" units="Pa.s">
  <eqno value="102" />
  <A value="2.2718E-07" />
  <B value="0.67661" />
  <C value="192.16" />
  <D value="-86.47" />
  <Tmin units="K" value="182" />
  <Tmax units="K" value="1000" />
  </VaporViscosity>
<LiquidThermalConductivity name="Liquid thermal conductivity" units="W/m/K">
  <eqno value="16" />
  <A value="0.010965" />
  <B value="-0.28239" />
  <C value="-1.5585" />
  <D value="-0.0012856" />
  <E value="-0.0000013221" />
  <Tmin units="K" value="182" />
  <Tmax units="K" value="513.15" />
  </LiquidThermalConductivity>
<VaporThermalConductivity name="Vapour thermal conductivity" units="W/m/K">
  <eqno value="102" />
  <A value="-3901000" />
  <B value="-0.05461" />
  <C value="1.6551E+09" />
  <D value="-2.4357E+13" />
  <Tmin units="K" value="182" />
  <Tmax units="K" value="1000" />
  </VaporThermalConductivity>
<SurfaceTension name="Surface tension" units="N/m">
  <eqno value="16" />
  <A value="-0.0058735" />
  <B value="202.77" />
  <C value="-5.1928" />
  <D value="0.0083152" />
  <E value="-0.00001616" />
  <Tmin units="K" value="182" />
  <Tmax units="K" value="545.88" />
  </SurfaceTension>
<RPPHeatCapacityCp name="Ideal gas heat capacity (RPP)" units="J/kmol/K">
  <eqno value="4" />
  <A value="31485" />
  <B value="357.59" />
  <C value="-0.11667" />
  <D value="0.0000049337" />
  <Tmin units="K" value="200" />
  <Tmax units="K" value="1500" />
  </RPPHeatCapacityCp>
<AntoineVaporPressure name="Antoine" units="Pa">
  <eqno value="10" />
  <A value="21.106" />
  <B value="3045.8" />
  <C value="-58.174" />
  <Tmin units="K" value="337.15" />
  <Tmax units="K" value="485.24" />
  </AntoineVaporPressure>
<LiquidViscosityRPS name="Liquid viscosity (RPS)" units="Pa.s">
  <eqno value="12" />
  <A value="-3.3505" />
  <B value="-0.013773" />
  <Tmin units="K" value="182" />
  <Tmax units="K" value="376.15" />
  </LiquidViscosityRPS>
<COSTALDVolume name="COSTLD characteristic volume (V*)" units="m3/kmol" value="0.317875" />
<DiameterLJ name="Lennard Jones diameter" units="m" value="6.283707E-10" />
<EnergyLJ name="Lennard Jones energy" units="K" value="299.3623" />
<RacketParameter name="Rackett parameter" units="_" value="0.248481" />
<FullerVolume name="Fuller et al. diffusion volume" units="_" value="108.71" />
<MatthiasCopemanC2 name="Mathias-Copeman C2" units="_" value="0" />
<Parachor name="Parachor" units="kg0.25.m3/s0.5/kmol" value="0.042492" />
<SpecificGravity name="Specific gravity" units="_" value="0.814463" />
<Charge name="Charge" units="_" value="0" />
<CostaldAcentricFactor name="SRK acentric factor" units="_" value="0.390803" />
<WilsonVolume name="Wilson volume" units="m3/kmol" value="0.107035" />
<UniquacR name="UNIQUAC r" units="_" value="3.9223" />
<UniquacQ name="UNIQUAC q" units="_" value="3.416" />
<MatthiasCopemanC3 name="Mathias-Copeman C3" units="_" value="0" />
<ChaoSeaderAcentricFactor name="Chao-Seader acentric factor" units="_" value="0.347159" />
<ChaoSeaderSolubilityParameter name="Chao-Seader solubility parameter" units="J0.5/m1.5" value="18440" />
<ChaoSeaderLiquidVolume name="Chao-Seader liquid volume" units="m3/kmol" value="0.107035" />
<UnifacVLE name="UNIFAC">
  <group id="1" value="1" />
  <group id="2" value="3" />
  <group id="21" value="1" />
  </UnifacVLE>
<UnifacLLE name="UNIFAC-LLE">
  <group id="1" value="1" />
  <group id="2" value="3" />
  <group id="21" value="1" />
  </UnifacLLE>
<Asog name="ASOG">
  <group id="1" value="1" />
  <group id="2" value="3" />
  <group id="20" value="1" />
  </Asog>
<Umr name="UMR">
  <group id="1" value="1" />
  <group id="2" value="3" />
  <group id="21" value="1" />
  </Umr>
<ModifiedUnifac name="Modified UNIFAC">
  <group id="1" value="1" />
  <group id="2" value="3" />
  <group id="20" value="1" />
  </ModifiedUnifac>
<CAS name="CAS number" value="110-62-3" />
<Smiles name="SMILES" value="CCCCC=O" />
</compound>

