<compound>
<LibraryIndex name="Index" value="1469" />
<CompoundID name="Name" value="pentaethylene glycol dimethyl ether" />
<StructureFormula name="Structure" value="CH3O(CH2CH2O)5CH3" />
<Family name="Family" value="62" />
<CriticalTemperature name="Critical temperature" units="K" value="769.8" />
<CriticalPressure name="Critical pressure" units="Pa" value="1667000" />
<CriticalVolume name="Critical volume" units="m3/kmol" value="0.821" />
<CriticalCompressibility name="Critical compressibility factor" units="_" value="0.214" />
<NormalBoilingPointTemperature name="Normal boiling point" units="K" value="615.1" />
<NormalMeltingPointTemperature name="Melting point" units="K" value="261.6" />
<TriplePointTemperature name="Triple point temperature" units="K" value="261.6" />
<TriplePointPressure name="Triple point pressure" units="Pa" value="0.000000538" />
<MolecularWeight name="Molecular weight" units="kg/kmol" value="266.331" />
<LiquidVolumeAtNormalBoilingPoint name="Liquid molar volume at normal boiling point" units="m3/kmol" value="0.2599" />
<AcentricityFactor name="Acentric factor" units="_" value="1.13878" />
<RadiusOfGyration name="Radius of gyration" units="m" value="7.32E-10" />
<SolubilityParameter name="Solubility parameter" units="J0.5/m1.5" value="20280" />
<DipoleMoment name="Dipole moment" units="Coulomb.m" value="9.12E-30" />
<VanDerWaalsVolume name="Van der Waals volume" units="m3/kmol" value="0.1518" />
<VanDerWaalsArea name="Van der Waals area" units="m2/kmol" value="2.134E+09" />
<HeatOfFormation name="IG heat of formation" units="J/kmol" value="-1.006E+09" />
<GibbsEnergyOfFormation name="IG Gibbs energy of formation" units="J/kmol" value="-5.521E+08" />
<AbsEntropy name="IG absolute entropy" units="J/kmol/K" value="858400" />
<HeatOfFusionAtMeltingPoint name="Heat of fusion at melting point" units="J/kmol" value="3.59E+07" />
<HeatOfCombustion name="Standard net heat of combustion LHV" units="J/kmol" value="-6.751E+09" />
<SolidDensity name="Solid density" units="kmol/m3">
  <eqno value="100" />
  <A value="4.6396" />
  <B value="0" />
  <C value="0" />
  <D value="0" />
  <E value="0" />
  <Tmin units="K" value="261.6" />
  <Tmax units="K" value="261.6" />
  </SolidDensity>
<LiquidDensity name="Liquid density" units="kmol/m3">
  <eqno value="105" />
  <A value="0.31133" />
  <B value="0.25559" />
  <C value="769.8" />
  <D value="0.34857" />
  <Tmin units="K" value="261.6" />
  <Tmax units="K" value="769.8" />
  </LiquidDensity>
<VaporPressure name="Vapour pressure" units="Pa">
  <eqno value="101" />
  <A value="140.13" />
  <B value="-17794" />
  <C value="-15.547" />
  <D value="3.0855E-18" />
  <E value="6" />
  <Tmin units="K" value="261.6" />
  <Tmax units="K" value="769.8" />
  </VaporPressure>
<HeatOfVaporization name="Heat of vaporization" units="J/kmol">
  <eqno value="106" />
  <A value="1.5572E+08" />
  <B value="0.9235" />
  <C value="-0.52618" />
  <D value="0.0091786" />
  <E value="0" />
  <Tmin units="K" value="261.6" />
  <Tmax units="K" value="769.8" />
  </HeatOfVaporization>
<SolidHeatCapacityCp name="Solid heat capacity" units="J/kmol/K">
  <eqno value="102" />
  <A value="5140" />
  <B value="0.79267" />
  <C value="0" />
  <D value="0" />
  <Tmin units="K" value="50" />
  <Tmax units="K" value="261.6" />
  </SolidHeatCapacityCp>
<LiquidHeatCapacityCp name="Liquid heat capacity" units="J/kmol/K">
  <eqno value="100" />
  <A value="733220" />
  <B value="-1352.6" />
  <C value="2.4419" />
  <D value="0" />
  <E value="0" />
  <Tmin units="K" value="261.6" />
  <Tmax units="K" value="421.46" />
  </LiquidHeatCapacityCp>
<IdealGasHeatCapacityCp name="Ideal gas heat capacity" units="J/kmol/K">
  <eqno value="16" />
  <A value="192000.2" />
  <B value="-551.8192" />
  <C value="13.79535" />
  <D value="0" />
  <E value="0" />
  <Tmin units="K" value="255" />
  <Tmax units="K" value="1500" />
  </IdealGasHeatCapacityCp>
<SecondVirialCoefficient name="Second virial coefficient" units="m3/kmol">
  <eqno value="104" />
  <A value="0.64283" />
  <B value="-407.64" />
  <C value="-6.9923E+08" />
  <D value="-7.4732E+21" />
  <E value="8.0522E+23" />
  <Tmin units="K" value="384.9" />
  <Tmax units="K" value="1500" />
  </SecondVirialCoefficient>
<LiquidViscosity name="Liquid viscosity" units="Pa.s">
  <eqno value="101" />
  <A value="37.491" />
  <B value="-1990.7" />
  <C value="-6.6882" />
  <D value="1.6124E+10" />
  <E value="-4" />
  <Tmin units="K" value="261.6" />
  <Tmax units="K" value="615.84" />
  </LiquidViscosity>
<VaporViscosity name="Vapour viscosity" units="Pa.s">
  <eqno value="102" />
  <A value="4.2445E-08" />
  <B value="0.86111" />
  <C value="65.781" />
  <D value="0" />
  <Tmin units="K" value="261.6" />
  <Tmax units="K" value="1000" />
  </VaporViscosity>
<LiquidThermalConductivity name="Liquid thermal conductivity" units="W/m/K">
  <eqno value="100" />
  <A value="0.14373" />
  <B value="-0.00013453" />
  <C value="-1.2619E-09" />
  <D value="0" />
  <E value="0" />
  <Tmin units="K" value="230.94" />
  <Tmax units="K" value="615.84" />
  </LiquidThermalConductivity>
<VaporThermalConductivity name="Vapour thermal conductivity" units="W/m/K">
  <eqno value="102" />
  <A value="0.0001446" />
  <B value="0.9323" />
  <C value="801.5" />
  <D value="0" />
  <Tmin units="K" value="615.1" />
  <Tmax units="K" value="1000" />
  </VaporThermalConductivity>
<SurfaceTension name="Surface tension" units="N/m">
  <eqno value="106" />
  <A value="0.078363" />
  <B value="1.5459" />
  <C value="0.54929" />
  <D value="-0.85792" />
  <E value="0" />
  <Tmin units="K" value="261.6" />
  <Tmax units="K" value="769.8" />
  </SurfaceTension>
<AntoineVaporPressure name="Antoine" units="Pa">
  <eqno value="10" />
  <A value="22.28356" />
  <B value="4013.636" />
  <C value="-46.73555" />
  <Tmin units="K" value="492.08" />
  <Tmax units="K" value="769.8" />
  </AntoineVaporPressure>
<FullerVolume name="Fuller et al. diffusion volume" units="_" value="287.52" />
<Charge name="Charge" units="_" value="0" />
<CostaldAcentricFactor name="SRK acentric factor" units="_" value="1.13878" />
<WilsonVolume name="Wilson volume" units="m3/kmol" value="0.2599" />
<UniquacR name="UNIQUAC r" units="_" value="10.0096" />
<UniquacQ name="UNIQUAC q" units="_" value="8.536" />
<ChaoSeaderAcentricFactor name="Chao-Seader acentric factor" units="_" value="1.13878" />
<ChaoSeaderSolubilityParameter name="Chao-Seader solubility parameter" units="J0.5/m1.5" value="20280" />
<ChaoSeaderLiquidVolume name="Chao-Seader liquid volume" units="m3/kmol" value="0.2599" />
<UnifacVLE name="UNIFAC">
  <group id="2" value="6" />
  <group id="25" value="2" />
  <group id="26" value="4" />
  </UnifacVLE>
<UnifacLLE name="UNIFAC-LLE">
  <group id="2" value="6" />
  <group id="27" value="2" />
  <group id="28" value="4" />
  </UnifacLLE>
<Asog name="ASOG">
  <group id="2" value="6" />
  <group id="19" value="2" />
  <group id="19" value="4" />
  </Asog>
<GCmethod name="PPR78">
  <group id="2" value="6" />
  </GCmethod>
<Umr name="UMR">
  <group id="2" value="6" />
  <group id="25" value="2" />
  <group id="26" value="4" />
  </Umr>
<ModifiedUnifac name="Modified UNIFAC">
  <group id="2" value="6" />
  <group id="24" value="2" />
  <group id="25" value="4" />
  </ModifiedUnifac>
<CAS name="CAS number" value="1191-87-3" />
<Smiles name="SMILES" value="COCCOCCOCCOCCOCCOC" />
</compound>

