<compound>
<LibraryIndex name="Index" value="1842" />
<CompoundID name="Name" value="phenyl mercaptan" />
<StructureFormula name="Structure" value="(C6H5)SH" />
<Family name="Family" value="41" />
<CriticalTemperature name="Critical temperature" units="K" value="689" />
<CriticalPressure name="Critical pressure" units="Pa" value="4740000" />
<CriticalVolume name="Critical volume" units="m3/kmol" value="0.315" />
<CriticalCompressibility name="Critical compressibility factor" units="_" value="0.261" />
<NormalBoilingPointTemperature name="Normal boiling point" units="K" value="441.15" />
<NormalMeltingPointTemperature name="Melting point" units="K" value="258.2" />
<TriplePointTemperature name="Triple point temperature" units="K" value="258.27" />
<TriplePointPressure name="Triple point pressure" units="Pa" value="7.67992" />
<MolecularWeight name="Molecular weight" units="kg/kmol" value="110.177" />
<LiquidVolumeAtNormalBoilingPoint name="Liquid molar volume at normal boiling point" units="m3/kmol" value="0.102698" />
<AcentricityFactor name="Acentric factor" units="_" value="0.262789" />
<RadiusOfGyration name="Radius of gyration" units="m" value="3.6081E-10" />
<SolubilityParameter name="Solubility parameter" units="J0.5/m1.5" value="21160" />
<DipoleMoment name="Dipole moment" units="Coulomb.m" value="4.1E-30" />
<VanDerWaalsVolume name="Van der Waals volume" units="m3/kmol" value="0.06065" />
<VanDerWaalsArea name="Van der Waals area" units="m2/kmol" value="8.65E+08" />
<HeatOfFormation name="IG heat of formation" units="J/kmol" value="1.124E+08" />
<GibbsEnergyOfFormation name="IG Gibbs energy of formation" units="J/kmol" value="1.476E+08" />
<AbsEntropy name="IG absolute entropy" units="J/kmol/K" value="336900" />
<HeatOfFusionAtMeltingPoint name="Heat of fusion at melting point" units="J/kmol" value="1.148E+07" />
<HeatOfCombustion name="Standard net heat of combustion LHV" units="J/kmol" value="-3.4474E+09" />
<SolidDensity name="Solid density" units="kmol/m3">
  <eqno value="100" />
  <A value="12.895" />
  <B value="-0.0062412" />
  <C value="0" />
  <D value="0" />
  <E value="0" />
  <Tmin units="K" value="103.31" />
  <Tmax units="K" value="258.27" />
  </SolidDensity>
<LiquidDensity name="Liquid density" units="kmol/m3">
  <eqno value="105" />
  <A value="0.83573" />
  <B value="0.26326" />
  <C value="689" />
  <D value="0.30798" />
  <Tmin units="K" value="258.27" />
  <Tmax units="K" value="689" />
  </LiquidDensity>
<VaporPressure name="Vapour pressure" units="Pa">
  <eqno value="101" />
  <A value="77.765" />
  <B value="-8455.1" />
  <C value="-7.7404" />
  <D value="4.3089E-18" />
  <E value="6" />
  <Tmin units="K" value="258.27" />
  <Tmax units="K" value="689" />
  </VaporPressure>
<HeatOfVaporization name="Heat of vaporization" units="J/kmol">
  <eqno value="106" />
  <A value="6.225E+07" />
  <B value="0.4412" />
  <C value="0" />
  <D value="0" />
  <E value="0" />
  <Tmin units="K" value="258.27" />
  <Tmax units="K" value="689" />
  </HeatOfVaporization>
<SolidHeatCapacityCp name="Solid heat capacity" units="J/kmol/K">
  <eqno value="100" />
  <A value="74730" />
  <B value="-106" />
  <C value="1.332" />
  <D value="0" />
  <E value="0" />
  <Tmin units="K" value="130" />
  <Tmax units="K" value="258.27" />
  </SolidHeatCapacityCp>
<LiquidHeatCapacityCp name="Liquid heat capacity" units="J/kmol/K">
  <eqno value="100" />
  <A value="119780" />
  <B value="180.34" />
  <C value="0" />
  <D value="0" />
  <E value="0" />
  <Tmin units="K" value="258.27" />
  <Tmax units="K" value="442.29" />
  </LiquidHeatCapacityCp>
<IdealGasHeatCapacityCp name="Ideal gas heat capacity" units="J/kmol/K">
  <eqno value="107" />
  <A value="68950" />
  <B value="232750" />
  <C value="1512" />
  <D value="175160" />
  <E value="697.9" />
  <Tmin units="K" value="200" />
  <Tmax units="K" value="1500" />
  </IdealGasHeatCapacityCp>
<SecondVirialCoefficient name="Second virial coefficient" units="m3/kmol">
  <eqno value="104" />
  <A value="0.161" />
  <B value="-195" />
  <C value="-1.071E+08" />
  <D value="7.66E+20" />
  <E value="-2.533E+23" />
  <Tmin units="K" value="344.5" />
  <Tmax units="K" value="3444.5" />
  </SecondVirialCoefficient>
<LiquidViscosity name="Liquid viscosity" units="Pa.s">
  <eqno value="101" />
  <A value="-8.4562" />
  <B value="1024.4" />
  <C value="-0.30635" />
  <D value="0" />
  <E value="0" />
  <Tmin units="K" value="258.27" />
  <Tmax units="K" value="442.29" />
  </LiquidViscosity>
<VaporViscosity name="Vapour viscosity" units="Pa.s">
  <eqno value="102" />
  <A value="1.1184E-07" />
  <B value="0.8002" />
  <C value="152.43" />
  <D value="0" />
  <Tmin units="K" value="442.29" />
  <Tmax units="K" value="1000" />
  </VaporViscosity>
<LiquidThermalConductivity name="Liquid thermal conductivity" units="W/m/K">
  <eqno value="100" />
  <A value="0.20996" />
  <B value="-0.0002146" />
  <C value="0" />
  <D value="0" />
  <E value="0" />
  <Tmin units="K" value="258.27" />
  <Tmax units="K" value="442.29" />
  </LiquidThermalConductivity>
<VaporThermalConductivity name="Vapour thermal conductivity" units="W/m/K">
  <eqno value="102" />
  <A value="0.00047951" />
  <B value="0.7818" />
  <C value="463.4" />
  <D value="189410" />
  <Tmin units="K" value="442.29" />
  <Tmax units="K" value="1000" />
  </VaporThermalConductivity>
<SurfaceTension name="Surface tension" units="N/m">
  <eqno value="106" />
  <A value="0.07927" />
  <B value="1.272" />
  <C value="0" />
  <D value="0" />
  <E value="0" />
  <Tmin units="K" value="258.27" />
  <Tmax units="K" value="689" />
  </SurfaceTension>
<AntoineVaporPressure name="Antoine" units="Pa">
  <eqno value="10" />
  <A value="21.17583" />
  <B value="3594.089" />
  <C value="-70.98704" />
  <Tmin units="K" value="258.27" />
  <Tmax units="K" value="689" />
  </AntoineVaporPressure>
<FullerVolume name="Fuller et al. diffusion volume" units="_" value="113.86" />
<Parachor name="Parachor" units="kg0.25.m3/s0.5/kmol" value="0.0456815" />
<SpecificGravity name="Specific gravity" units="_" value="1.075" />
<Charge name="Charge" units="_" value="0" />
<CostaldAcentricFactor name="SRK acentric factor" units="_" value="0.262789" />
<WilsonVolume name="Wilson volume" units="m3/kmol" value="0.102698" />
<UniquacR name="UNIQUAC r" units="_" value="3.998022" />
<UniquacQ name="UNIQUAC q" units="_" value="3.46" />
<ChaoSeaderAcentricFactor name="Chao-Seader acentric factor" units="_" value="0.262789" />
<ChaoSeaderSolubilityParameter name="Chao-Seader solubility parameter" units="J0.5/m1.5" value="21160" />
<ChaoSeaderLiquidVolume name="Chao-Seader liquid volume" units="m3/kmol" value="0.102698" />
<CAS name="CAS number" value="108-98-5" />
<Smiles name="SMILES" value="C1=CC=C2C(=C1)C=CS2" />
</compound>

