<compound>
<LibraryIndex name="Index" value="1773" />
<CompoundID name="Name" value="propionitrile" />
<StructureFormula name="Structure" value="CH3CH2CN" />
<Family name="Family" value="38" />
<CriticalTemperature name="Critical temperature" units="K" value="564.4" />
<CriticalPressure name="Critical pressure" units="Pa" value="4180000" />
<CriticalVolume name="Critical volume" units="m3/kmol" value="0.229" />
<CriticalCompressibility name="Critical compressibility factor" units="_" value="0.204" />
<NormalBoilingPointTemperature name="Normal boiling point" units="K" value="370.5" />
<NormalMeltingPointTemperature name="Melting point" units="K" value="180.26" />
<TriplePointTemperature name="Triple point temperature" units="K" value="180.26" />
<TriplePointPressure name="Triple point pressure" units="Pa" value="0.169356" />
<MolecularWeight name="Molecular weight" units="kg/kmol" value="55.0785" />
<LiquidVolumeAtNormalBoilingPoint name="Liquid molar volume at normal boiling point" units="m3/kmol" value="0.0708565" />
<AcentricityFactor name="Acentric factor" units="_" value="0.324267" />
<RadiusOfGyration name="Radius of gyration" units="m" value="2.652E-10" />
<SolubilityParameter name="Solubility parameter" units="J0.5/m1.5" value="21760" />
<DipoleMoment name="Dipole moment" units="Coulomb.m" value="1.34E-29" />
<VanDerWaalsVolume name="Van der Waals volume" units="m3/kmol" value="0.0386" />
<VanDerWaalsArea name="Van der Waals area" units="m2/kmol" value="5.66E+08" />
<HeatOfFormation name="IG heat of formation" units="J/kmol" value="5.15E+07" />
<GibbsEnergyOfFormation name="IG Gibbs energy of formation" units="J/kmol" value="9.74949E+07" />
<AbsEntropy name="IG absolute entropy" units="J/kmol/K" value="286600" />
<HeatOfFusionAtMeltingPoint name="Heat of fusion at melting point" units="J/kmol" value="5029170" />
<MatthiasCopemanC1 name="Mathias-Copeman C1" units="_" value="1.2586" />
<HeatOfCombustion name="Standard net heat of combustion LHV" units="J/kmol" value="-1.8007E+09" />
<SolidDensity name="Solid density" units="kmol/m3">
  <eqno value="2" />
  <A value="20.345" />
  <B value="-0.012638" />
  <C value="0" />
  <D value="0" />
  <E value="0" />
  <Tmin units="K" value="72.1" />
  <Tmax units="K" value="180.26" />
  </SolidDensity>
<LiquidDensity name="Liquid density" units="kmol/m3">
  <eqno value="105" />
  <A value="0.90359" />
  <B value="0.2211" />
  <C value="564.4" />
  <D value="0.26246" />
  <Tmin units="K" value="180.26" />
  <Tmax units="K" value="564.4" />
  </LiquidDensity>
<VaporPressure name="Vapour pressure" units="Pa">
  <eqno value="101" />
  <A value="81.601" />
  <B value="-6646.8" />
  <C value="-8.9882" />
  <D value="0.0000074443" />
  <E value="2" />
  <Tmin units="K" value="180.26" />
  <Tmax units="K" value="564.4" />
  </VaporPressure>
<HeatOfVaporization name="Heat of vaporization" units="J/kmol">
  <eqno value="106" />
  <A value="3.633259E+07" />
  <B value="-2.107222" />
  <C value="8.013128" />
  <D value="-9.747514" />
  <E value="4.114254" />
  <Tmin units="K" value="180.26" />
  <Tmax units="K" value="564.4" />
  </HeatOfVaporization>
<SolidHeatCapacityCp name="Solid heat capacity" units="J/kmol/K">
  <eqno value="100" />
  <A value="-14960" />
  <B value="1312.1" />
  <C value="-7.69" />
  <D value="0.017079" />
  <E value="0.000015678" />
  <Tmin units="K" value="15" />
  <Tmax units="K" value="170" />
  </SolidHeatCapacityCp>
<LiquidHeatCapacityCp name="Liquid heat capacity" units="J/kmol/K">
  <eqno value="16" />
  <A value="105770" />
  <B value="154.89" />
  <C value="4.5843" />
  <D value="0.018329" />
  <E value="-0.000011984" />
  <Tmin units="K" value="180.26" />
  <Tmax units="K" value="370.5" />
  </LiquidHeatCapacityCp>
<IdealGasHeatCapacityCp name="Ideal gas heat capacity" units="J/kmol/K">
  <eqno value="16" />
  <A value="47947" />
  <B value="-544.83" />
  <C value="11.91" />
  <D value="0.00026005" />
  <E value="-9.1233E-08" />
  <Tmin units="K" value="200" />
  <Tmax units="K" value="1500" />
  </IdealGasHeatCapacityCp>
<SecondVirialCoefficient name="Second virial coefficient" units="m3/kmol">
  <eqno value="104" />
  <A value="0.088354" />
  <B value="-183.35" />
  <C value="-90.512" />
  <D value="-32289" />
  <E value="-55646" />
  <Tmin units="K" value="338.64" />
  <Tmax units="K" value="1500" />
  </SecondVirialCoefficient>
<LiquidViscosity name="Liquid viscosity" units="Pa.s">
  <eqno value="101" />
  <A value="-8.0958" />
  <B value="775.57" />
  <C value="-0.393" />
  <D value="-7.9624E-07" />
  <E value="2" />
  <Tmin units="K" value="250" />
  <Tmax units="K" value="464" />
  </LiquidViscosity>
<VaporViscosity name="Vapour viscosity" units="Pa.s">
  <eqno value="102" />
  <A value="9.8851E-08" />
  <B value="0.79377" />
  <C value="155.28" />
  <D value="-11568" />
  <Tmin units="K" value="180.26" />
  <Tmax units="K" value="1000" />
  </VaporViscosity>
<LiquidThermalConductivity name="Liquid thermal conductivity" units="W/m/K">
  <eqno value="16" />
  <A value="0.13846" />
  <B value="2645.2" />
  <C value="-37.177" />
  <D value="0.15078" />
  <E value="-0.00022598" />
  <Tmin units="K" value="180.26" />
  <Tmax units="K" value="413.15" />
  </LiquidThermalConductivity>
<VaporThermalConductivity name="Vapour thermal conductivity" units="W/m/K">
  <eqno value="102" />
  <A value="0.00048871" />
  <B value="1.327" />
  <C value="43042" />
  <D value="-3226700" />
  <Tmin units="K" value="180.26" />
  <Tmax units="K" value="990.5" />
  </VaporThermalConductivity>
<SurfaceTension name="Surface tension" units="N/m">
  <eqno value="16" />
  <A value="-0.018019" />
  <B value="28.207" />
  <C value="-2.8898" />
  <D value="0.00012339" />
  <E value="-0.0000039362" />
  <Tmin units="K" value="180.26" />
  <Tmax units="K" value="564.4" />
  </SurfaceTension>
<RPPHeatCapacityCp name="Ideal gas heat capacity (RPP)" units="J/kmol/K">
  <eqno value="4" />
  <A value="17680" />
  <B value="218.52" />
  <C value="-0.10368" />
  <D value="0.000017753" />
  <Tmin units="K" value="200" />
  <Tmax units="K" value="1500" />
  </RPPHeatCapacityCp>
<RelativeStaticPermittivity name="Relative static permittivity" units="_">
  <eqno value="120" />
  <A value="-19.90771" />
  <B value="-10000" />
  <C value="-83.1" />
  <Tmin units="K" value="274.15" />
  <Tmax units="K" value="444.15" />
  </RelativeStaticPermittivity>
<AntoineVaporPressure name="Antoine" units="Pa">
  <eqno value="10" />
  <A value="21.537" />
  <B value="3368.2" />
  <C value="-34.373" />
  <Tmin units="K" value="342" />
  <Tmax units="K" value="503.75" />
  </AntoineVaporPressure>
<LiquidViscosityRPS name="Liquid viscosity (RPS)" units="Pa.s">
  <eqno value="12" />
  <A value="-4.9156" />
  <B value="-0.0096282" />
  <Tmin units="K" value="250" />
  <Tmax units="K" value="370.5" />
  </LiquidViscosityRPS>
<COSTALDVolume name="COSTLD characteristic volume (V*)" units="m3/kmol" value="0.204617" />
<DiameterLJ name="Lennard Jones diameter" units="m" value="7.690725E-10" />
<EnergyLJ name="Lennard Jones energy" units="K" value="120.5504" />
<RacketParameter name="Rackett parameter" units="_" value="0.216826" />
<FullerVolume name="Fuller et al. diffusion volume" units="_" value="63.79" />
<MatthiasCopemanC2 name="Mathias-Copeman C2" units="_" value="-2.1562" />
<Parachor name="Parachor" units="kg0.25.m3/s0.5/kmol" value="0.0289561" />
<SpecificGravity name="Specific gravity" units="_" value="0.786785" />
<Charge name="Charge" units="_" value="0" />
<CostaldAcentricFactor name="SRK acentric factor" units="_" value="0.324267" />
<WilsonVolume name="Wilson volume" units="m3/kmol" value="0.0708565" />
<UniquacR name="UNIQUAC r" units="_" value="2.5445" />
<UniquacQ name="UNIQUAC q" units="_" value="2.264" />
<MatthiasCopemanC3 name="Mathias-Copeman C3" units="_" value="3.5161" />
<ChaoSeaderAcentricFactor name="Chao-Seader acentric factor" units="_" value="0.324267" />
<ChaoSeaderSolubilityParameter name="Chao-Seader solubility parameter" units="J0.5/m1.5" value="21760" />
<ChaoSeaderLiquidVolume name="Chao-Seader liquid volume" units="m3/kmol" value="0.0708565" />
<UnifacVLE name="UNIFAC">
  <group id="42" value="1" />
  <group id="1" value="1" />
  </UnifacVLE>
<Asog name="ASOG">
  <group id="1" value="1" />
  <group id="2" value="1" />
  <group id="28" value="1" />
  </Asog>
<Umr name="UMR">
  <group id="42" value="1" />
  <group id="1" value="1" />
  </Umr>
<CAS name="CAS number" value="107-12-0" />
<Smiles name="SMILES" value="CCC#N" />
</compound>

