<compound>
<LibraryIndex name="Index" value="1253" />
<CompoundID name="Name" value="propionic acid" />
<StructureFormula name="Structure" value="CH3CH2COOH" />
<Family name="Family" value="50" />
<CriticalTemperature name="Critical temperature" units="K" value="604" />
<CriticalPressure name="Critical pressure" units="Pa" value="4530000" />
<CriticalVolume name="Critical volume" units="m3/kmol" value="0.233" />
<CriticalCompressibility name="Critical compressibility factor" units="_" value="0.207" />
<NormalBoilingPointTemperature name="Normal boiling point" units="K" value="414.31" />
<NormalMeltingPointTemperature name="Melting point" units="K" value="252.45" />
<TriplePointTemperature name="Triple point temperature" units="K" value="252.45" />
<TriplePointPressure name="Triple point pressure" units="Pa" value="13.1" />
<MolecularWeight name="Molecular weight" units="kg/kmol" value="74.07854" />
<LiquidVolumeAtNormalBoilingPoint name="Liquid molar volume at normal boiling point" units="m3/kmol" value="0.07497" />
<AcentricityFactor name="Acentric factor" units="_" value="0.544" />
<RadiusOfGyration name="Radius of gyration" units="m" value="3.107E-10" />
<SolubilityParameter name="Solubility parameter" units="J0.5/m1.5" value="19490" />
<DipoleMoment name="Dipole moment" units="Coulomb.m" value="5.84E-30" />
<VanDerWaalsVolume name="Van der Waals volume" units="m3/kmol" value="0.04342" />
<VanDerWaalsArea name="Van der Waals area" units="m2/kmol" value="6.53E+08" />
<HeatOfFormation name="IG heat of formation" units="J/kmol" value="-4.535E+08" />
<GibbsEnergyOfFormation name="IG Gibbs energy of formation" units="J/kmol" value="-3.568E+08" />
<AbsEntropy name="IG absolute entropy" units="J/kmol/K" value="294900" />
<HeatOfFusionAtMeltingPoint name="Heat of fusion at melting point" units="J/kmol" value="1.066E+07" />
<MatthiasCopemanC1 name="Mathias-Copeman C1" units="_" value="0.7827" />
<HeatOfCombustion name="Standard net heat of combustion LHV" units="J/kmol" value="-1.395E+09" />
<SolidDensity name="Solid density" units="kmol/m3">
  <eqno value="2" />
  <A value="18.159" />
  <B value="-0.0088316" />
  <Tmin units="K" value="100.98" />
  <Tmax units="K" value="252.45" />
  </SolidDensity>
<LiquidDensity name="Liquid density" units="kmol/m3">
  <eqno value="105" />
  <A value="0.88103" />
  <B value="0.22848" />
  <C value="612.66" />
  <D value="0.25898" />
  <Tmin units="K" value="233.15" />
  <Tmax units="K" value="612.65" />
  </LiquidDensity>
<VaporPressure name="Vapour pressure" units="Pa">
  <eqno value="101" />
  <A value="58.42" />
  <B value="-7261.2" />
  <C value="-4.9024" />
  <D value="0.0000010406" />
  <E value="2" />
  <Tmin units="K" value="252.45" />
  <Tmax units="K" value="600.81" />
  </VaporPressure>
<HeatOfVaporization name="Heat of vaporization" units="J/kmol">
  <eqno value="106" />
  <A value="4.8878E+07" />
  <B value="3.7167" />
  <C value="-10.822" />
  <D value="11.498" />
  <E value="-4.1176" />
  <Tmin units="K" value="252.45" />
  <Tmax units="K" value="600.81" />
  </HeatOfVaporization>
<SolidHeatCapacityCp name="Solid heat capacity" units="J/kmol/K">
  <eqno value="100" />
  <A value="-14676" />
  <B value="1223.1" />
  <C value="-7.0075" />
  <D value="0.021772" />
  <E value="-0.000020423" />
  <Tmin units="K" value="30" />
  <Tmax units="K" value="252.65" />
  </SolidHeatCapacityCp>
<LiquidHeatCapacityCp name="Liquid heat capacity" units="J/kmol/K">
  <eqno value="16" />
  <A value="120710" />
  <B value="704.7" />
  <C value="1.1886" />
  <D value="0.028883" />
  <E value="-0.000020278" />
  <Tmin units="K" value="252.45" />
  <Tmax units="K" value="414.32" />
  </LiquidHeatCapacityCp>
<IdealGasHeatCapacityCp name="Ideal gas heat capacity" units="J/kmol/K">
  <eqno value="16" />
  <A value="47961" />
  <B value="-474.81" />
  <C value="12.167" />
  <D value="0.00020648" />
  <E value="-6.6213E-08" />
  <Tmin units="K" value="252.45" />
  <Tmax units="K" value="1500" />
  </IdealGasHeatCapacityCp>
<LiquidViscosity name="Liquid viscosity" units="Pa.s">
  <eqno value="101" />
  <A value="-53.41646" />
  <B value="2724.985" />
  <C value="6.7143" />
  <D value="-9.670276E-06" />
  <E value="2" />
  <Tmin units="K" value="252.45" />
  <Tmax units="K" value="504" />
  </LiquidViscosity>
<VaporViscosity name="Vapour viscosity" units="Pa.s">
  <eqno value="102" />
  <A value="1.6155E-08" />
  <B value="1.0459" />
  <C value="-115.32" />
  <D value="27680" />
  <Tmin units="K" value="252.45" />
  <Tmax units="K" value="1000" />
  </VaporViscosity>
<LiquidThermalConductivity name="Liquid thermal conductivity" units="W/m/K">
  <eqno value="16" />
  <A value="0.067757" />
  <B value="-235.87" />
  <C value="-0.022659" />
  <D value="-0.0065033" />
  <E value="0.0000026666" />
  <Tmin units="K" value="252.45" />
  <Tmax units="K" value="543.15" />
  </LiquidThermalConductivity>
<VaporThermalConductivity name="Vapour thermal conductivity" units="W/m/K">
  <eqno value="3" />
  <A value="-0.00163685" />
  <B value="0.0000207415" />
  <C value="7.101384E-08" />
  <Tmin units="K" value="252.45" />
  <Tmax units="K" value="616.15" />
  </VaporThermalConductivity>
<SurfaceTension name="Surface tension" units="N/m">
  <eqno value="16" />
  <A value="-0.010977" />
  <B value="146.33" />
  <C value="-4.0999" />
  <D value="0.0031834" />
  <E value="-0.0000071046" />
  <Tmin units="K" value="252.45" />
  <Tmax units="K" value="600.81" />
  </SurfaceTension>
<RPPHeatCapacityCp name="Ideal gas heat capacity (RPP)" units="J/kmol/K">
  <eqno value="4" />
  <A value="8861" />
  <B value="324.07" />
  <C value="-0.19078" />
  <D value="0.000043643" />
  <Tmin units="K" value="252.45" />
  <Tmax units="K" value="1500" />
  </RPPHeatCapacityCp>
<RelativeStaticPermittivity name="Relative static permittivity" units="_">
  <eqno value="120" />
  <A value="-2.46964" />
  <B value="-1550" />
  <C value="-9.3" />
  <Tmin units="K" value="268.5945" />
  <Tmax units="K" value="438.5945" />
  </RelativeStaticPermittivity>
<AntoineVaporPressure name="Antoine" units="Pa">
  <eqno value="10" />
  <A value="22.83" />
  <B value="4099" />
  <C value="-51.622" />
  <Tmin units="K" value="362.46" />
  <Tmax units="K" value="527.47" />
  </AntoineVaporPressure>
<LiquidViscosityRPS name="Liquid viscosity (RPS)" units="Pa.s">
  <eqno value="13" />
  <A value="0.81021" />
  <B value="-0.03741" />
  <C value="0.000039093" />
  <Tmin units="K" value="252.45" />
  <Tmax units="K" value="414.32" />
  </LiquidViscosityRPS>
<COSTALDVolume name="COSTLD characteristic volume (V*)" units="m3/kmol" value="0.230362" />
<DiameterLJ name="Lennard Jones diameter" units="m" value="7.600915E-10" />
<EnergyLJ name="Lennard Jones energy" units="K" value="135.9701" />
<FullerVolume name="Fuller et al. diffusion volume" units="_" value="73.78" />
<MatthiasCopemanC2 name="Mathias-Copeman C2" units="_" value="4.20003" />
<Parachor name="Parachor" units="kg0.25.m3/s0.5/kmol" value="0.0303" />
<Charge name="Charge" units="_" value="0" />
<CostaldAcentricFactor name="SRK acentric factor" units="_" value="0.52" />
<WilsonVolume name="Wilson volume" units="m3/kmol" value="0.0749523" />
<UniquacR name="UNIQUAC r" units="_" value="2.9" />
<UniquacQ name="UNIQUAC q" units="_" value="2.58" />
<MatthiasCopemanC3 name="Mathias-Copeman C3" units="_" value="-9.25219" />
<ChaoSeaderAcentricFactor name="Chao-Seader acentric factor" units="_" value="0.52" />
<ChaoSeaderSolubilityParameter name="Chao-Seader solubility parameter" units="J0.5/m1.5" value="19130.1" />
<ChaoSeaderLiquidVolume name="Chao-Seader liquid volume" units="m3/kmol" value="0.0749523" />
<UnifacVLE name="UNIFAC">
  <group id="1" value="1" />
  <group id="2" value="1" />
  <group id="43" value="1" />
  </UnifacVLE>
<UnifacLLE name="UNIFAC-LLE">
  <group id="1" value="1" />
  <group id="2" value="1" />
  <group id="23" value="1" />
  </UnifacLLE>
<Asog name="ASOG">
  <group id="1" value="1" />
  <group id="2" value="1" />
  <group id="24" value="1" />
  </Asog>
<Umr name="UMR">
  <group id="1" value="1" />
  <group id="2" value="1" />
  <group id="43" value="1" />
  </Umr>
<ModifiedUnifac name="Modified UNIFAC">
  <group id="1" value="1" />
  <group id="2" value="1" />
  <group id="42" value="1" />
  </ModifiedUnifac>
<CAS name="CAS number" value="79-09-4" />
<Smiles name="SMILES" value="CCC(=O)O" />
</compound>

