<compound>
<LibraryIndex name="Index" value="2367" />
<CompoundID name="Name" value="propylene carbonate" />
<StructureFormula name="Structure" value="-OCH(CH3)CH2OCO-" />
<Family name="Family" value="45" />
<CriticalTemperature name="Critical temperature" units="K" value="778" />
<CriticalPressure name="Critical pressure" units="Pa" value="5410000" />
<CriticalVolume name="Critical volume" units="m3/kmol" value="0.246" />
<CriticalCompressibility name="Critical compressibility factor" units="_" value="0.206" />
<NormalBoilingPointTemperature name="Normal boiling point" units="K" value="514.9" />
<NormalMeltingPointTemperature name="Melting point" units="K" value="218.62" />
<TriplePointTemperature name="Triple point temperature" units="K" value="224.85" />
<TriplePointPressure name="Triple point pressure" units="Pa" value="0.00116652" />
<MolecularWeight name="Molecular weight" units="kg/kmol" value="102.0886" />
<LiquidVolumeAtNormalBoilingPoint name="Liquid molar volume at normal boiling point" units="m3/kmol" value="0.0852768" />
<AcentricityFactor name="Acentric factor" units="_" value="0.449764" />
<RadiusOfGyration name="Radius of gyration" units="m" value="3.413E-10" />
<SolubilityParameter name="Solubility parameter" units="J0.5/m1.5" value="27300" />
<DipoleMoment name="Dipole moment" units="Coulomb.m" value="1.65E-29" />
<VanDerWaalsVolume name="Van der Waals volume" units="m3/kmol" value="0.04519" />
<VanDerWaalsArea name="Van der Waals area" units="m2/kmol" value="5.7E+08" />
<HeatOfFormation name="IG heat of formation" units="J/kmol" value="-6.0116E+08" />
<GibbsEnergyOfFormation name="IG Gibbs energy of formation" units="J/kmol" value="-4.555E+08" />
<AbsEntropy name="IG absolute entropy" units="J/kmol/K" value="296300" />
<HeatOfFusionAtMeltingPoint name="Heat of fusion at melting point" units="J/kmol" value="9617000" />
<MatthiasCopemanC1 name="Mathias-Copeman C1" units="_" value="1.09674" />
<HeatOfCombustion name="Standard net heat of combustion LHV" units="J/kmol" value="-1.6678E+09" />
<SolidDensity name="Solid density" units="kmol/m3">
  <eqno value="100" />
  <A value="15.979" />
  <B value="-0.0088829" />
  <C value="0" />
  <D value="0" />
  <E value="0" />
  <Tmin units="K" value="89.94" />
  <Tmax units="K" value="224.85" />
  </SolidDensity>
<LiquidDensity name="Liquid density" units="kmol/m3">
  <eqno value="105" />
  <A value="1.122" />
  <B value="0.27599" />
  <C value="778" />
  <D value="0.40344" />
  <Tmin units="K" value="224.85" />
  <Tmax units="K" value="778" />
  </LiquidDensity>
<VaporPressure name="Vapour pressure" units="Pa">
  <eqno value="101" />
  <A value="102.32" />
  <B value="-10530" />
  <C value="-11.489" />
  <D value="0.0000052921" />
  <E value="2" />
  <Tmin units="K" value="224.85" />
  <Tmax units="K" value="778" />
  </VaporPressure>
<HeatOfVaporization name="Heat of vaporization" units="J/kmol">
  <eqno value="106" />
  <A value="3.145898E+08" />
  <B value="9.998207" />
  <C value="-26.2884" />
  <D value="28.38292" />
  <E value="-11.49051" />
  <Tmin units="K" value="224.85" />
  <Tmax units="K" value="778" />
  </HeatOfVaporization>
<SolidHeatCapacityCp name="Solid heat capacity" units="J/kmol/K">
  <eqno value="100" />
  <A value="3041.6" />
  <B value="908.81" />
  <C value="-3.5669" />
  <D value="0.00717" />
  <E value="8.8712E-08" />
  <Tmin units="K" value="55" />
  <Tmax units="K" value="224.5" />
  </SolidHeatCapacityCp>
<LiquidHeatCapacityCp name="Liquid heat capacity" units="J/kmol/K">
  <eqno value="16" />
  <A value="121750" />
  <B value="105.89" />
  <C value="6.5083" />
  <D value="0.016964" />
  <E value="-0.000014577" />
  <Tmin units="K" value="298.15" />
  <Tmax units="K" value="425" />
  </LiquidHeatCapacityCp>
<IdealGasHeatCapacityCp name="Ideal gas heat capacity" units="J/kmol/K">
  <eqno value="16" />
  <A value="51696" />
  <B value="-502.59" />
  <C value="12.655" />
  <D value="-0.000076494" />
  <E value="1.3781E-08" />
  <Tmin units="K" value="273" />
  <Tmax units="K" value="1500" />
  </IdealGasHeatCapacityCp>
<SecondVirialCoefficient name="Second virial coefficient" units="m3/kmol">
  <eqno value="104" />
  <A value="0.16441" />
  <B value="-219.89" />
  <C value="-163.04" />
  <D value="-737950" />
  <E value="1715100" />
  <Tmin units="K" value="389" />
  <Tmax units="K" value="1500" />
  </SecondVirialCoefficient>
<LiquidViscosity name="Liquid viscosity" units="Pa.s">
  <eqno value="101" />
  <A value="-818.33" />
  <B value="28057" />
  <C value="129.62" />
  <D value="-0.00022812" />
  <E value="2" />
  <Tmin units="K" value="219" />
  <Tmax units="K" value="622.4" />
  </LiquidViscosity>
<VaporViscosity name="Vapour viscosity" units="Pa.s">
  <eqno value="102" />
  <A value="4.7119E-08" />
  <B value="0.92676" />
  <C value="86.628" />
  <D value="-9783.8" />
  <Tmin units="K" value="224.85" />
  <Tmax units="K" value="1000" />
  </VaporViscosity>
<LiquidThermalConductivity name="Liquid thermal conductivity" units="W/m/K">
  <eqno value="16" />
  <A value="-0.096241" />
  <B value="6.7832" />
  <C value="-1.0385" />
  <D value="-0.00032841" />
  <E value="-6.9782E-07" />
  <Tmin units="K" value="224.85" />
  <Tmax units="K" value="514.85" />
  </LiquidThermalConductivity>
<VaporThermalConductivity name="Vapour thermal conductivity" units="W/m/K">
  <eqno value="102" />
  <A value="0.00017416" />
  <B value="0.94857" />
  <C value="659.28" />
  <D value="16364" />
  <Tmin units="K" value="274" />
  <Tmax units="K" value="1000" />
  </VaporThermalConductivity>
<SurfaceTension name="Surface tension" units="N/m">
  <eqno value="116" />
  <A value="0" />
  <B value="0" />
  <C value="0" />
  <D value="0.0358859" />
  <E value="0.0358859" />
  <Tmin units="K" value="218.62" />
  <Tmax units="K" value="778" />
  </SurfaceTension>
<RPPHeatCapacityCp name="Ideal gas heat capacity (RPP)" units="J/kmol/K">
  <eqno value="4" />
  <A value="-6737.7" />
  <B value="477.48" />
  <C value="-0.32123" />
  <D value="0.000080589" />
  <Tmin units="K" value="273" />
  <Tmax units="K" value="1500" />
  </RPPHeatCapacityCp>
<RelativeStaticPermittivity name="Relative static permittivity" units="_">
  <eqno value="120" />
  <A value="0.412687" />
  <B value="-16994.83" />
  <C value="-34.01907" />
  <Tmin units="K" value="273" />
  <Tmax units="K" value="778" />
  </RelativeStaticPermittivity>
<AntoineVaporPressure name="Antoine" units="Pa">
  <eqno value="10" />
  <A value="21.845" />
  <B value="4552.5" />
  <C value="-73.662" />
  <Tmin units="K" value="471.91" />
  <Tmax units="K" value="690.66" />
  </AntoineVaporPressure>
<LiquidViscosityRPS name="Liquid viscosity (RPS)" units="Pa.s">
  <eqno value="12" />
  <A value="-1.8879" />
  <B value="-0.012915" />
  <Tmin units="K" value="219" />
  <Tmax units="K" value="622.4" />
  </LiquidViscosityRPS>
<COSTALDVolume name="COSTLD characteristic volume (V*)" units="m3/kmol" value="0.239863" />
<DiameterLJ name="Lennard Jones diameter" units="m" value="7.784834E-10" />
<EnergyLJ name="Lennard Jones energy" units="K" value="172.1134" />
<RacketParameter name="Rackett parameter" units="_" value="0.243726" />
<FullerVolume name="Fuller et al. diffusion volume" units="_" value="95.79" />
<MatthiasCopemanC2 name="Mathias-Copeman C2" units="_" value="0" />
<Parachor name="Parachor" units="kg0.25.m3/s0.5/kmol" value="0.0381263" />
<SpecificGravity name="Specific gravity" units="_" value="1.208416" />
<Charge name="Charge" units="_" value="0" />
<CostaldAcentricFactor name="SRK acentric factor" units="_" value="0.449764" />
<WilsonVolume name="Wilson volume" units="m3/kmol" value="0.0852768" />
<UniquacR name="UNIQUAC r" units="_" value="3.6024" />
<UniquacQ name="UNIQUAC q" units="_" value="3.006" />
<MatthiasCopemanC3 name="Mathias-Copeman C3" units="_" value="0" />
<ChaoSeaderAcentricFactor name="Chao-Seader acentric factor" units="_" value="0.449764" />
<ChaoSeaderSolubilityParameter name="Chao-Seader solubility parameter" units="J0.5/m1.5" value="27300" />
<ChaoSeaderLiquidVolume name="Chao-Seader liquid volume" units="m3/kmol" value="0.0852768" />
<UnifacVLE name="UNIFAC">
  <group id="1" value="1" />
  <group id="2" value="1" />
  <group id="3" value="1" />
  <group id="120" value="1" />
  </UnifacVLE>
<Asog name="ASOG">
  <group id="1" value="1" />
  <group id="3" value="1" />
  <group id="21" value="1" />
  <group id="22" value="1" />
  </Asog>
<Umr name="UMR">
  <group id="1" value="1" />
  <group id="2" value="1" />
  <group id="3" value="1" />
  <group id="120" value="1" />
  </Umr>
<CAS name="CAS number" value="108-32-7" />
<Smiles name="SMILES" value="C1C(C)OC(=O)O1" />
</compound>

