<compound>
<LibraryIndex name="Index" value="807" />
<CompoundID name="Name" value="pyrene" />
<StructureFormula name="Structure" value="C16H10" />
<Family name="Family" value="20" />
<CriticalTemperature name="Critical temperature" units="K" value="936" />
<CriticalPressure name="Critical pressure" units="Pa" value="2610000" />
<CriticalVolume name="Critical volume" units="m3/kmol" value="0.66" />
<CriticalCompressibility name="Critical compressibility factor" units="_" value="0.221" />
<NormalBoilingPointTemperature name="Normal boiling point" units="K" value="667.95" />
<NormalMeltingPointTemperature name="Melting point" units="K" value="423.81" />
<TriplePointTemperature name="Triple point temperature" units="K" value="423.81" />
<TriplePointPressure name="Triple point pressure" units="Pa" value="70.0313" />
<MolecularWeight name="Molecular weight" units="kg/kmol" value="202.2506" />
<LiquidVolumeAtNormalBoilingPoint name="Liquid molar volume at normal boiling point" units="m3/kmol" value="0.184923" />
<AcentricityFactor name="Acentric factor" units="_" value="0.507416" />
<RadiusOfGyration name="Radius of gyration" units="m" value="5.152E-10" />
<SolubilityParameter name="Solubility parameter" units="J0.5/m1.5" value="19670" />
<DipoleMoment name="Dipole moment" units="Coulomb.m" value="0" />
<VanDerWaalsVolume name="Van der Waals volume" units="m3/kmol" value="0.10904" />
<VanDerWaalsArea name="Van der Waals area" units="m2/kmol" value="1.126E+09" />
<HeatOfFormation name="IG heat of formation" units="J/kmol" value="2.25E+08" />
<GibbsEnergyOfFormation name="IG Gibbs energy of formation" units="J/kmol" value="3.272E+08" />
<AbsEntropy name="IG absolute entropy" units="J/kmol/K" value="402000" />
<HeatOfFusionAtMeltingPoint name="Heat of fusion at melting point" units="J/kmol" value="1.736E+07" />
<MatthiasCopemanC1 name="Mathias-Copeman C1" units="_" value="1.4078" />
<HeatOfCombustion name="Standard net heat of combustion LHV" units="J/kmol" value="-7.63094E+09" />
<SolidDensity name="Solid density" units="kmol/m3">
  <eqno value="2" />
  <A value="6.2841" />
  <B value="7.4227E-17" />
  <Tmin units="K" value="295.85" />
  <Tmax units="K" value="305.35" />
  </SolidDensity>
<LiquidDensity name="Liquid density" units="kmol/m3">
  <eqno value="105" />
  <A value="0.54272" />
  <B value="0.27165" />
  <C value="936" />
  <D value="0.41522" />
  <Tmin units="K" value="293.15" />
  <Tmax units="K" value="909.04" />
  </LiquidDensity>
<VaporPressure name="Vapour pressure" units="Pa">
  <eqno value="101" />
  <A value="68.91405" />
  <B value="-11628.85" />
  <C value="-6.184331" />
  <D value="6.420723E-07" />
  <E value="2" />
  <Tmin units="K" value="423.81" />
  <Tmax units="K" value="936" />
  </VaporPressure>
<HeatOfVaporization name="Heat of vaporization" units="J/kmol">
  <eqno value="106" />
  <A value="9.198843E+07" />
  <B value="-0.224752" />
  <C value="1.989996" />
  <D value="-2.139885" />
  <E value="0.666532" />
  <Tmin units="K" value="423.81" />
  <Tmax units="K" value="909.04" />
  </HeatOfVaporization>
<SolidHeatCapacityCp name="Solid heat capacity" units="J/kmol/K">
  <eqno value="100" />
  <A value="34428" />
  <B value="193.16" />
  <C value="2.988" />
  <D value="-0.0075382" />
  <E value="0.0000090005" />
  <Tmin units="K" value="100" />
  <Tmax units="K" value="423.81" />
  </SolidHeatCapacityCp>
<LiquidHeatCapacityCp name="Liquid heat capacity" units="J/kmol/K">
  <eqno value="16" />
  <A value="149400" />
  <B value="-94.468" />
  <C value="11.128" />
  <D value="0.0038746" />
  <E value="-0.0000019128" />
  <Tmin units="K" value="423.81" />
  <Tmax units="K" value="600" />
  </LiquidHeatCapacityCp>
<IdealGasHeatCapacityCp name="Ideal gas heat capacity" units="J/kmol/K">
  <eqno value="16" />
  <A value="117680" />
  <B value="-754.3" />
  <C value="14.068" />
  <D value="-0.00069165" />
  <E value="2.0484E-07" />
  <Tmin units="K" value="150" />
  <Tmax units="K" value="1500" />
  </IdealGasHeatCapacityCp>
<SecondVirialCoefficient name="Second virial coefficient" units="m3/kmol">
  <eqno value="104" />
  <A value="0.50411" />
  <B value="-846.36" />
  <C value="-528.72" />
  <D value="-815460" />
  <E value="-79126" />
  <Tmin units="K" value="468" />
  <Tmax units="K" value="1731" />
  </SecondVirialCoefficient>
<LiquidViscosity name="Liquid viscosity" units="Pa.s">
  <eqno value="101" />
  <A value="-131.9" />
  <B value="8597.1" />
  <C value="17.746" />
  <D value="-0.000010523" />
  <E value="2" />
  <Tmin units="K" value="423.35" />
  <Tmax units="K" value="667.95" />
  </LiquidViscosity>
<VaporViscosity name="Vapour viscosity" units="Pa.s">
  <eqno value="102" />
  <A value="4.4284E-07" />
  <B value="0.52754" />
  <C value="289.9" />
  <D value="15025" />
  <Tmin units="K" value="423.81" />
  <Tmax units="K" value="1000" />
  </VaporViscosity>
<LiquidThermalConductivity name="Liquid thermal conductivity" units="W/m/K">
  <eqno value="16" />
  <A value="0.10165" />
  <B value="-731.42" />
  <C value="0.75712" />
  <D value="-0.0079846" />
  <E value="0.0000028317" />
  <Tmin units="K" value="288.65" />
  <Tmax units="K" value="550" />
  </LiquidThermalConductivity>
<VaporThermalConductivity name="Vapour thermal conductivity" units="W/m/K">
  <eqno value="102" />
  <A value="0.000092503" />
  <B value="0.97453" />
  <C value="647.35" />
  <D value="45503" />
  <Tmin units="K" value="423.81" />
  <Tmax units="K" value="1000" />
  </VaporThermalConductivity>
<SurfaceTension name="Surface tension" units="N/m">
  <eqno value="16" />
  <A value="-0.007329" />
  <B value="346.59" />
  <C value="-4.6696" />
  <D value="0.0036569" />
  <E value="-0.0000046813" />
  <Tmin units="K" value="423.81" />
  <Tmax units="K" value="909.04" />
  </SurfaceTension>
<RPPHeatCapacityCp name="Ideal gas heat capacity (RPP)" units="J/kmol/K">
  <eqno value="4" />
  <A value="-33015" />
  <B value="969.84" />
  <C value="-0.55466" />
  <D value="0.00011137" />
  <Tmin units="K" value="150" />
  <Tmax units="K" value="1500" />
  </RPPHeatCapacityCp>
<AntoineVaporPressure name="Antoine" units="Pa">
  <eqno value="10" />
  <A value="21.723" />
  <B value="6010.1" />
  <C value="-76.729" />
  <Tmin units="K" value="573.15" />
  <Tmax units="K" value="833.56" />
  </AntoineVaporPressure>
<LiquidViscosityRPS name="Liquid viscosity (RPS)" units="Pa.s">
  <eqno value="13" />
  <A value="2.0317" />
  <B value="-0.026367" />
  <C value="0.000016432" />
  <Tmin units="K" value="423.35" />
  <Tmax units="K" value="667.95" />
  </LiquidViscosityRPS>
<COSTALDVolume name="COSTLD characteristic volume (V*)" units="m3/kmol" value="0.615194" />
<DiameterLJ name="Lennard Jones diameter" units="m" value="9.942347E-10" />
<EnergyLJ name="Lennard Jones energy" units="K" value="266.6866" />
<RacketParameter name="Rackett parameter" units="_" value="0.217071" />
<FullerVolume name="Fuller et al. diffusion volume" units="_" value="222.6" />
<MatthiasCopemanC2 name="Mathias-Copeman C2" units="_" value="-1.4079" />
<Parachor name="Parachor" units="kg0.25.m3/s0.5/kmol" value="0.0719" />
<SpecificGravity name="Specific gravity" units="_" value="1.27404" />
<Charge name="Charge" units="_" value="0" />
<CostaldAcentricFactor name="SRK acentric factor" units="_" value="0.507416" />
<WilsonVolume name="Wilson volume" units="m3/kmol" value="0.17368" />
<UniquacR name="UNIQUAC r" units="_" value="7.187871" />
<UniquacQ name="UNIQUAC q" units="_" value="4.504" />
<MatthiasCopemanC3 name="Mathias-Copeman C3" units="_" value="2.1204" />
<ChaoSeaderAcentricFactor name="Chao-Seader acentric factor" units="_" value="0.344" />
<ChaoSeaderSolubilityParameter name="Chao-Seader solubility parameter" units="J0.5/m1.5" value="20762.5" />
<ChaoSeaderLiquidVolume name="Chao-Seader liquid volume" units="m3/kmol" value="0.17368" />
<UnifacVLE name="UNIFAC">
  <group id="10" value="10" />
  <group id="11" value="6" />
  </UnifacVLE>
<UnifacLLE name="UNIFAC-LLE">
  <group id="9" value="10" />
  <group id="10" value="6" />
  </UnifacLLE>
<Asog name="ASOG">
  <group id="10" value="10" />
  <group id="11" value="6" />
  </Asog>
<GCmethod name="PPR78">
  <group id="7" value="10" />
  <group id="9" value="6" />
  </GCmethod>
<Umr name="UMR">
  <group id="10" value="10" />
  <group id="11" value="6" />
  </Umr>
<ModifiedUnifac name="Modified UNIFAC">
  <group id="9" value="10" />
  <group id="10" value="6" />
  </ModifiedUnifac>
<CAS name="CAS number" value="129-00-0" />
<Smiles name="SMILES" value="C1=CC2=C3C(=C1)C=CC1=CC=CC(=C31)C=C2" />
</compound>

