<compound>
<LibraryIndex name="Index" value="1845" />
<CompoundID name="Name" value="sulfolane" />
<StructureFormula name="Structure" value="-(CH2)2SO2(CH2)2-" />
<Family name="Family" value="70" />
<CriticalTemperature name="Critical temperature" units="K" value="855" />
<CriticalPressure name="Critical pressure" units="Pa" value="7290000" />
<CriticalVolume name="Critical volume" units="m3/kmol" value="0.3365" />
<CriticalCompressibility name="Critical compressibility factor" units="_" value="0.345074" />
<NormalBoilingPointTemperature name="Normal boiling point" units="K" value="560.45" />
<NormalMeltingPointTemperature name="Melting point" units="K" value="300.55" />
<TriplePointTemperature name="Triple point temperature" units="K" value="300.55" />
<TriplePointPressure name="Triple point pressure" units="Pa" value="0.704459" />
<MolecularWeight name="Molecular weight" units="kg/kmol" value="120.1701" />
<LiquidVolumeAtNormalBoilingPoint name="Liquid molar volume at normal boiling point" units="m3/kmol" value="0.0952677" />
<AcentricityFactor name="Acentric factor" units="_" value="0.5234" />
<RadiusOfGyration name="Radius of gyration" units="m" value="3.309E-10" />
<SolubilityParameter name="Solubility parameter" units="J0.5/m1.5" value="26110" />
<DipoleMoment name="Dipole moment" units="Coulomb.m" value="1.56E-29" />
<VanDerWaalsVolume name="Van der Waals volume" units="m3/kmol" value="0.06122" />
<VanDerWaalsArea name="Van der Waals area" units="m2/kmol" value="8.0E+08" />
<HeatOfFormation name="IG heat of formation" units="J/kmol" value="-3.727E+08" />
<GibbsEnergyOfFormation name="IG Gibbs energy of formation" units="J/kmol" value="-2.431E+08" />
<AbsEntropy name="IG absolute entropy" units="J/kmol/K" value="347500" />
<HeatOfFusionAtMeltingPoint name="Heat of fusion at melting point" units="J/kmol" value="1373000" />
<MatthiasCopemanC1 name="Mathias-Copeman C1" units="_" value="1.3" />
<HeatOfCombustion name="Standard net heat of combustion LHV" units="J/kmol" value="-2.397E+09" />
<SolidDensity name="Solid density" units="kmol/m3">
  <eqno value="2" />
  <A value="13.313" />
  <B value="-0.0048955" />
  <Tmin units="K" value="120.22" />
  <Tmax units="K" value="300.75" />
  </SolidDensity>
<LiquidDensity name="Liquid density" units="kmol/m3">
  <eqno value="105" />
  <A value="0.89997" />
  <B value="0.26972" />
  <C value="853" />
  <D value="0.30746" />
  <Tmin units="K" value="300.55" />
  <Tmax units="K" value="853" />
  </LiquidDensity>
<VaporPressure name="Vapour pressure" units="Pa">
  <eqno value="101" />
  <A value="112.0995" />
  <B value="-12237.47" />
  <C value="-12.64533" />
  <D value="4.157394E-06" />
  <E value="2" />
  <Tmin units="K" value="273.15" />
  <Tmax units="K" value="853" />
  </VaporPressure>
<HeatOfVaporization name="Heat of vaporization" units="J/kmol">
  <eqno value="106" />
  <A value="1.605659E+08" />
  <B value="3.828131" />
  <C value="-7.67047" />
  <D value="6.739132" />
  <E value="-2.353929" />
  <Tmin units="K" value="300.55" />
  <Tmax units="K" value="853" />
  </HeatOfVaporization>
<SolidHeatCapacityCp name="Solid heat capacity" units="J/kmol/K">
  <eqno value="100" />
  <A value="-785.07" />
  <B value="-58445" />
  <C value="597.38" />
  <D value="-2.0114" />
  <E value="0.0022509" />
  <Tmin units="K" value="293.15" />
  <Tmax units="K" value="302.65" />
  </SolidHeatCapacityCp>
<LiquidHeatCapacityCp name="Liquid heat capacity" units="J/kmol/K">
  <eqno value="16" />
  <A value="122690" />
  <B value="-336.31" />
  <C value="11.614" />
  <D value="0.0017011" />
  <E value="-5.0866E-07" />
  <Tmin units="K" value="300.55" />
  <Tmax units="K" value="711.15" />
  </LiquidHeatCapacityCp>
<IdealGasHeatCapacityCp name="Ideal gas heat capacity" units="J/kmol/K">
  <eqno value="16" />
  <A value="92921" />
  <B value="-999.97" />
  <C value="13.757" />
  <D value="-0.00093192" />
  <E value="0.0000002258" />
  <Tmin units="K" value="273.15" />
  <Tmax units="K" value="1500" />
  </IdealGasHeatCapacityCp>
<SecondVirialCoefficient name="Second virial coefficient" units="m3/kmol">
  <eqno value="104" />
  <A value="0.21162" />
  <B value="-345.47" />
  <C value="-201.18" />
  <D value="-901260" />
  <E value="2067300" />
  <Tmin units="K" value="426.5" />
  <Tmax units="K" value="1575.5" />
  </SecondVirialCoefficient>
<LiquidViscosity name="Liquid viscosity" units="Pa.s">
  <eqno value="101" />
  <A value="-56.251" />
  <B value="4046.1" />
  <C value="6.7894" />
  <D value="-0.0000052803" />
  <E value="2" />
  <Tmin units="K" value="273.15" />
  <Tmax units="K" value="682.4" />
  </LiquidViscosity>
<VaporViscosity name="Vapour viscosity" units="Pa.s">
  <eqno value="102" />
  <A value="2.9074E-08" />
  <B value="0.97453" />
  <C value="81.209" />
  <D value="-9361.1" />
  <Tmin units="K" value="300.55" />
  <Tmax units="K" value="1000" />
  </VaporViscosity>
<LiquidThermalConductivity name="Liquid thermal conductivity" units="W/m/K">
  <eqno value="16" />
  <A value="0.079581" />
  <B value="-84.501" />
  <C value="-1.1134" />
  <D value="-0.0025206" />
  <E value="2.9748E-07" />
  <Tmin units="K" value="273.15" />
  <Tmax units="K" value="450" />
  </LiquidThermalConductivity>
<VaporThermalConductivity name="Vapour thermal conductivity" units="W/m/K">
  <eqno value="102" />
  <A value="0.000077821" />
  <B value="1.0313" />
  <C value="528.38" />
  <D value="54551" />
  <Tmin units="K" value="300.55" />
  <Tmax units="K" value="1000" />
  </VaporThermalConductivity>
<SurfaceTension name="Surface tension" units="N/m">
  <eqno value="16" />
  <A value="-0.014132" />
  <B value="101.47" />
  <C value="-3.0694" />
  <D value="0.00080277" />
  <E value="-0.0000027696" />
  <Tmin units="K" value="273.15" />
  <Tmax units="K" value="853" />
  </SurfaceTension>
<RPPHeatCapacityCp name="Ideal gas heat capacity (RPP)" units="J/kmol/K">
  <eqno value="4" />
  <A value="-16512" />
  <B value="535.08" />
  <C value="-0.32273" />
  <D value="0.000068445" />
  <Tmin units="K" value="273.15" />
  <Tmax units="K" value="1500" />
  </RPPHeatCapacityCp>
<RelativeStaticPermittivity name="Relative static permittivity" units="_">
  <eqno value="120" />
  <A value="4.6" />
  <B value="-10000" />
  <C value="-45" />
  <Tmin units="K" value="303" />
  <Tmax units="K" value="853" />
  </RelativeStaticPermittivity>
<AntoineVaporPressure name="Antoine" units="Pa">
  <eqno value="10" />
  <A value="21.827" />
  <B value="5019" />
  <C value="-73.207" />
  <Tmin units="K" value="521.53" />
  <Tmax units="K" value="765.77" />
  </AntoineVaporPressure>
<LiquidViscosityRPS name="Liquid viscosity (RPS)" units="Pa.s">
  <eqno value="13" />
  <A value="3.0048" />
  <B value="-0.032316" />
  <C value="0.000023123" />
  <Tmin units="K" value="300.55" />
  <Tmax units="K" value="682.4" />
  </LiquidViscosityRPS>
<COSTALDVolume name="COSTLD characteristic volume (V*)" units="m3/kmol" value="0.327425" />
<DiameterLJ name="Lennard Jones diameter" units="m" value="7.990302E-10" />
<EnergyLJ name="Lennard Jones energy" units="K" value="212.828" />
<RacketParameter name="Rackett parameter" units="_" value="0.290731" />
<FullerVolume name="Fuller et al. diffusion volume" units="_" value="117.2" />
<MatthiasCopemanC2 name="Mathias-Copeman C2" units="_" value="0" />
<Parachor name="Parachor" units="kg0.25.m3/s0.5/kmol" value="0.0454" />
<SpecificGravity name="Specific gravity" units="_" value="1.26697" />
<Charge name="Charge" units="_" value="0" />
<CostaldAcentricFactor name="SRK acentric factor" units="_" value="0.377998" />
<WilsonVolume name="Wilson volume" units="m3/kmol" value="0.0952677" />
<UniquacR name="UNIQUAC r" units="_" value="4.0357" />
<UniquacQ name="UNIQUAC q" units="_" value="3.2" />
<UniquacQP name="UNIQUAC q'" units="_" value="3.2" />
<MatthiasCopemanC3 name="Mathias-Copeman C3" units="_" value="0" />
<ChaoSeaderAcentricFactor name="Chao-Seader acentric factor" units="_" value="0.377998" />
<ChaoSeaderSolubilityParameter name="Chao-Seader solubility parameter" units="J0.5/m1.5" value="26335.8" />
<ChaoSeaderLiquidVolume name="Chao-Seader liquid volume" units="m3/kmol" value="0.0952677" />
<UnifacVLE name="UNIFAC">
  <group id="2" value="2" />
  <group id="118" value="1" />
  </UnifacVLE>
<UnifacLLE name="UNIFAC-LLE">
  <group id="56" value="1" />
  </UnifacLLE>
<Asog name="ASOG">
  <group id="59" value="1" />
  </Asog>
<Umr name="UMR">
  <group id="2" value="2" />
  <group id="118" value="1" />
  </Umr>
<ModifiedUnifac name="Modified UNIFAC">
  <group id="78" value="2" />
  <group id="110" value="1" />
  </ModifiedUnifac>
<CAS name="CAS number" value="126-33-0" />
<Smiles name="SMILES" value="S1(=O)(=O)CCCC1" />
</compound>

