<compound>
<LibraryIndex name="Index" value="62" />
<CompoundID name="Name" value="tert-butylcyclohexane" />
<StructureFormula name="Structure" value="C6H11C(CH3)3" />
<Family name="Family" value="7" />
<CriticalTemperature name="Critical temperature" units="K" value="652" />
<CriticalPressure name="Critical pressure" units="Pa" value="2660000" />
<CriticalVolume name="Critical volume" units="m3/kmol" value="0.51" />
<CriticalCompressibility name="Critical compressibility factor" units="_" value="0.25" />
<NormalBoilingPointTemperature name="Normal boiling point" units="K" value="444.65" />
<NormalMeltingPointTemperature name="Melting point" units="K" value="231.98" />
<TriplePointTemperature name="Triple point temperature" units="K" value="231.98" />
<TriplePointPressure name="Triple point pressure" units="Pa" value="1.2" />
<MolecularWeight name="Molecular weight" units="kg/kmol" value="140.2658" />
<LiquidVolumeAtNormalBoilingPoint name="Liquid molar volume at normal boiling point" units="m3/kmol" value="0.1734" />
<AcentricityFactor name="Acentric factor" units="_" value="0.299134" />
<RadiusOfGyration name="Radius of gyration" units="m" value="4.413E-10" />
<SolubilityParameter name="Solubility parameter" units="J0.5/m1.5" value="16040" />
<DipoleMoment name="Dipole moment" units="Coulomb.m" value="0" />
<VanDerWaalsVolume name="Van der Waals volume" units="m3/kmol" value="0.1023" />
<VanDerWaalsArea name="Van der Waals area" units="m2/kmol" value="1.368E+09" />
<HeatOfFormation name="IG heat of formation" units="J/kmol" value="-2.169E+08" />
<GibbsEnergyOfFormation name="IG Gibbs energy of formation" units="J/kmol" value="5.695E+07" />
<AbsEntropy name="IG absolute entropy" units="J/kmol/K" value="445700" />
<HeatOfFusionAtMeltingPoint name="Heat of fusion at melting point" units="J/kmol" value="1.12E+07" />
<HeatOfCombustion name="Standard net heat of combustion LHV" units="J/kmol" value="-6.091E+09" />
<SolidDensity name="Solid density" units="kmol/m3">
  <eqno value="100" />
  <A value="7.857" />
  <B value="-0.004234" />
  <C value="0" />
  <D value="0" />
  <E value="0" />
  <Tmin units="K" value="92.79" />
  <Tmax units="K" value="231.98" />
  </SolidDensity>
<LiquidDensity name="Liquid density" units="kmol/m3">
  <eqno value="105" />
  <A value="0.52388" />
  <B value="0.26705" />
  <C value="652" />
  <D value="0.32913" />
  <Tmin units="K" value="231.98" />
  <Tmax units="K" value="629.89" />
  </LiquidDensity>
<VaporPressure name="Vapour pressure" units="Pa">
  <eqno value="101" />
  <A value="123.1664" />
  <B value="-9675.557" />
  <C value="-15.08186" />
  <D value="0.0000105041" />
  <E value="2" />
  <Tmin units="K" value="231.98" />
  <Tmax units="K" value="652" />
  </VaporPressure>
<HeatOfVaporization name="Heat of vaporization" units="J/kmol">
  <eqno value="106" />
  <A value="6.9454E+07" />
  <B value="0.40915" />
  <C value="1.6494" />
  <D value="-3.4494" />
  <E value="1.9573" />
  <Tmin units="K" value="231.98" />
  <Tmax units="K" value="629.89" />
  </HeatOfVaporization>
<SolidHeatCapacityCp name="Solid heat capacity" units="J/kmol/K">
  <eqno value="100" />
  <A value="7696.3" />
  <B value="1009" />
  <C value="-1.0555" />
  <D value="0.0022168" />
  <E value="-0.0000028006" />
  <Tmin units="K" value="50" />
  <Tmax units="K" value="231.98" />
  </SolidHeatCapacityCp>
<LiquidHeatCapacityCp name="Liquid heat capacity" units="J/kmol/K">
  <eqno value="16" />
  <A value="40996" />
  <B value="-122.74" />
  <C value="11.846" />
  <D value="0.0032488" />
  <E value="-0.0000015611" />
  <Tmin units="K" value="231.98" />
  <Tmax units="K" value="444.65" />
  </LiquidHeatCapacityCp>
<IdealGasHeatCapacityCp name="Ideal gas heat capacity" units="J/kmol/K">
  <eqno value="16" />
  <A value="95339" />
  <B value="-601.24" />
  <C value="13.623" />
  <D value="-0.000018521" />
  <E value="-1.574E-08" />
  <Tmin units="K" value="273" />
  <Tmax units="K" value="1500" />
  </IdealGasHeatCapacityCp>
<SecondVirialCoefficient name="Second virial coefficient" units="m3/kmol">
  <eqno value="104" />
  <A value="0.29828" />
  <B value="-390.95" />
  <C value="-86.65" />
  <D value="-19290" />
  <E value="30745" />
  <Tmin units="K" value="326" />
  <Tmax units="K" value="1500" />
  </SecondVirialCoefficient>
<LiquidViscosity name="Liquid viscosity" units="Pa.s">
  <eqno value="101" />
  <A value="-11.549" />
  <B value="1445.9" />
  <C value="0" />
  <D value="0" />
  <E value="0" />
  <Tmin units="K" value="231.98" />
  <Tmax units="K" value="444.65" />
  </LiquidViscosity>
<VaporViscosity name="Vapour viscosity" units="Pa.s">
  <eqno value="102" />
  <A value="4.6046E-08" />
  <B value="0.87493" />
  <C value="72.873" />
  <D value="-5600.2" />
  <Tmin units="K" value="231.98" />
  <Tmax units="K" value="1000" />
  </VaporViscosity>
<LiquidThermalConductivity name="Liquid thermal conductivity" units="W/m/K">
  <eqno value="16" />
  <A value="0.054405" />
  <B value="-203.55" />
  <C value="-0.50495" />
  <D value="-0.0065818" />
  <E value="0.0000029095" />
  <Tmin units="K" value="231.98" />
  <Tmax units="K" value="444.65" />
  </LiquidThermalConductivity>
<VaporThermalConductivity name="Vapour thermal conductivity" units="W/m/K">
  <eqno value="102" />
  <A value="0.077607" />
  <B value="0.14004" />
  <C value="-91.94" />
  <D value="1372500" />
  <Tmin units="K" value="231.98" />
  <Tmax units="K" value="1000" />
  </VaporThermalConductivity>
<SurfaceTension name="Surface tension" units="N/m">
  <eqno value="16" />
  <A value="-0.089059" />
  <B value="-24.697" />
  <C value="-1.6764" />
  <D value="-0.0015612" />
  <E value="7.2073E-07" />
  <Tmin units="K" value="231.98" />
  <Tmax units="K" value="629.89" />
  </SurfaceTension>
<RPPHeatCapacityCp name="Ideal gas heat capacity (RPP)" units="J/kmol/K">
  <eqno value="4" />
  <A value="-78018" />
  <B value="1134.2" />
  <C value="-0.67392" />
  <D value="0.00015048" />
  <Tmin units="K" value="298.15" />
  <Tmax units="K" value="1500" />
  </RPPHeatCapacityCp>
<AntoineVaporPressure name="Antoine" units="Pa">
  <eqno value="10" />
  <A value="20.565" />
  <B value="3373.6" />
  <C value="-71.505" />
  <Tmin units="K" value="392.72" />
  <Tmax units="K" value="585.68" />
  </AntoineVaporPressure>
<COSTALDVolume name="COSTLD characteristic volume (V*)" units="m3/kmol" value="0.57156" />
<DiameterLJ name="Lennard Jones diameter" units="m" value="7.868773E-10" />
<EnergyLJ name="Lennard Jones energy" units="K" value="289.5641" />
<RacketParameter name="Rackett parameter" units="_" value="0.261746" />
<FullerVolume name="Fuller et al. diffusion volume" units="_" value="205.2" />
<Parachor name="Parachor" units="kg0.25.m3/s0.5/kmol" value="0.069791" />
<SpecificGravity name="Specific gravity" units="_" value="0.81854" />
<Charge name="Charge" units="_" value="0" />
<CostaldAcentricFactor name="SRK acentric factor" units="_" value="0.299134" />
<WilsonVolume name="Wilson volume" units="m3/kmol" value="0.1734" />
<UniquacR name="UNIQUAC r" units="_" value="6.7417" />
<UniquacQ name="UNIQUAC q" units="_" value="5.472" />
<ApiSrkS2 name="API-SRK s2" units="_" value="-0.000764" />
<ChaoSeaderAcentricFactor name="Chao-Seader acentric factor" units="_" value="0.299134" />
<ChaoSeaderSolubilityParameter name="Chao-Seader solubility parameter" units="J0.5/m1.5" value="16040" />
<ChaoSeaderLiquidVolume name="Chao-Seader liquid volume" units="m3/kmol" value="0.1734" />
<UnifacVLE name="UNIFAC">
  <group id="1" value="3" />
  <group id="2" value="5" />
  <group id="3" value="1" />
  <group id="4" value="1" />
  </UnifacVLE>
<UnifacLLE name="UNIFAC-LLE">
  <group id="1" value="3" />
  <group id="2" value="5" />
  <group id="3" value="1" />
  <group id="4" value="1" />
  </UnifacLLE>
<Asog name="ASOG">
  <group id="1" value="3" />
  <group id="2" value="5" />
  <group id="3" value="1" />
  <group id="4" value="1" />
  </Asog>
<GCmethod name="PPR78">
  <group id="1" value="3" />
  <group id="10" value="5" />
  <group id="11" value="1" />
  <group id="4" value="1" />
  </GCmethod>
<Umr name="UMR">
  <group id="1" value="3" />
  <group id="2" value="5" />
  <group id="3" value="1" />
  <group id="4" value="1" />
  </Umr>
<ModifiedUnifac name="Modified UNIFAC">
  <group id="1" value="3" />
  <group id="4" value="1" />
  <group id="78" value="5" />
  <group id="79" value="1" />
  </ModifiedUnifac>
<CAS name="CAS number" value="3178-22-1" />
</compound>

