<compound>
<LibraryIndex name="Index" value="20555" />
<CompoundID name="Name" value="tetradecanal" />
<StructureFormula name="Structure" value="CH3(CH2)12CHO" />
<Family name="Family" value="25" />
<CriticalTemperature name="Critical temperature" units="K" value="721.7796" />
<CriticalPressure name="Critical pressure" units="Pa" value="1606028" />
<CriticalVolume name="Critical volume" units="m3/kmol" value="0.82616" />
<CriticalCompressibility name="Critical compressibility factor" units="_" value="0.221095" />
<NormalBoilingPointTemperature name="Normal boiling point" units="K" value="550.837" />
<NormalMeltingPointTemperature name="Melting point" units="K" value="298" />
<MolecularWeight name="Molecular weight" units="kg/kmol" value="212.3715" />
<LiquidVolumeAtNormalBoilingPoint name="Liquid molar volume at normal boiling point" units="m3/kmol" value="0.25519" />
<AcentricityFactor name="Acentric factor" units="_" value="0.777684" />
<HeatOfFormation name="IG heat of formation" units="J/kmol" value="-4.1787E+08" />
<GibbsEnergyOfFormation name="IG Gibbs energy of formation" units="J/kmol" value="-2.8229E+07" />
<AbsEntropy name="IG absolute entropy" units="J/kmol/K" value="717754.6" />
<HeatOfCombustion name="Standard net heat of combustion LHV" units="J/kmol" value="-8.48305E+09" />
<IdealGasHeatCapacityCp name="Ideal gas heat capacity" units="J/kmol/K">
  <eqno value="16" />
  <A value="138644.3" />
  <B value="-500" />
  <C value="13.75204" />
  <D value="0" />
  <E value="0" />
  <Tmin units="K" value="255" />
  <Tmax units="K" value="1500" />
  </IdealGasHeatCapacityCp>
<SurfaceTension name="Surface tension" units="N/m">
  <eqno value="116" />
  <A value="0" />
  <B value="0" />
  <C value="0" />
  <D value="0.0279408" />
  <E value="0.0279408" />
  <Tmin units="K" value="298" />
  <Tmax units="K" value="721.7796" />
  </SurfaceTension>
<AntoineVaporPressure name="Antoine" units="Pa">
  <eqno value="10" />
  <A value="21.07385" />
  <B value="4162.7" />
  <C value="-114.8499" />
  <Tmin units="K" value="295" />
  <Tmax units="K" value="721.7796" />
  </AntoineVaporPressure>
<FullerVolume name="Fuller et al. diffusion volume" units="_" value="293.39" />
<Parachor name="Parachor" units="kg0.25.m3/s0.5/kmol" value="0.106963" />
<SpecificGravity name="Specific gravity" units="_" value="0.83" />
<Charge name="Charge" units="_" value="0" />
<UniquacR name="UNIQUAC r" units="_" value="9.991899" />
<UniquacQ name="UNIQUAC q" units="_" value="8.276" />
<UnifacVLE name="UNIFAC">
  <group id="1" value="1" />
  <group id="2" value="12" />
  <group id="21" value="1" />
  </UnifacVLE>
<UnifacLLE name="UNIFAC-LLE">
  <group id="1" value="1" />
  <group id="2" value="12" />
  <group id="21" value="1" />
  </UnifacLLE>
<Asog name="ASOG">
  <group id="1" value="1" />
  <group id="2" value="12" />
  <group id="20" value="1" />
  </Asog>
<Umr name="UMR">
  <group id="1" value="1" />
  <group id="2" value="12" />
  <group id="21" value="1" />
  </Umr>
<ModifiedUnifac name="Modified UNIFAC">
  <group id="1" value="1" />
  <group id="2" value="12" />
  <group id="20" value="1" />
  </ModifiedUnifac>
<CAS name="CAS number" value="124-25-4" />
<Smiles name="SMILES" value="CCCCCCCCCCCCCC=O" />
</compound>

