<compound>
<LibraryIndex name="Index" value="1821" />
<CompoundID name="Name" value="thiophene" />
<StructureFormula name="Structure" value="-S(CH)4-" />
<Family name="Family" value="42" />
<CriticalTemperature name="Critical temperature" units="K" value="580" />
<CriticalPressure name="Critical pressure" units="Pa" value="5660000" />
<CriticalVolume name="Critical volume" units="m3/kmol" value="0.219" />
<CriticalCompressibility name="Critical compressibility factor" units="_" value="0.252" />
<NormalBoilingPointTemperature name="Normal boiling point" units="K" value="357.31" />
<NormalMeltingPointTemperature name="Melting point" units="K" value="234.94" />
<TriplePointTemperature name="Triple point temperature" units="K" value="234.94" />
<TriplePointPressure name="Triple point pressure" units="Pa" value="185.638" />
<MolecularWeight name="Molecular weight" units="kg/kmol" value="84.13956" />
<LiquidVolumeAtNormalBoilingPoint name="Liquid molar volume at normal boiling point" units="m3/kmol" value="0.07947" />
<AcentricityFactor name="Acentric factor" units="_" value="0.186" />
<RadiusOfGyration name="Radius of gyration" units="m" value="2.781E-10" />
<SolubilityParameter name="Solubility parameter" units="J0.5/m1.5" value="20120" />
<DipoleMoment name="Dipole moment" units="Coulomb.m" value="1.8E-30" />
<VanDerWaalsVolume name="Van der Waals volume" units="m3/kmol" value="0.04354" />
<VanDerWaalsArea name="Van der Waals area" units="m2/kmol" value="5.05E+08" />
<HeatOfFormation name="IG heat of formation" units="J/kmol" value="1.1544E+08" />
<GibbsEnergyOfFormation name="IG Gibbs energy of formation" units="J/kmol" value="1.267E+08" />
<AbsEntropy name="IG absolute entropy" units="J/kmol/K" value="278400" />
<HeatOfFusionAtMeltingPoint name="Heat of fusion at melting point" units="J/kmol" value="5085600" />
<MatthiasCopemanC1 name="Mathias-Copeman C1" units="_" value="0.84548" />
<HeatOfCombustion name="Standard net heat of combustion LHV" units="J/kmol" value="-2.4352E+09" />
<SolidDensity name="Solid density" units="kmol/m3">
  <eqno value="2" />
  <A value="16.705" />
  <B value="-0.010977" />
  <Tmin units="K" value="88.15" />
  <Tmax units="K" value="234.94" />
  </SolidDensity>
<LiquidDensity name="Liquid density" units="kmol/m3">
  <eqno value="105" />
  <A value="0.73395" />
  <B value="0.21494" />
  <C value="580" />
  <D value="0.2288" />
  <Tmin units="K" value="234.94" />
  <Tmax units="K" value="579.35" />
  </LiquidDensity>
<VaporPressure name="Vapour pressure" units="Pa">
  <eqno value="101" />
  <A value="88.26733" />
  <B value="-6809.188" />
  <C value="-9.975872" />
  <D value="0.0000074967" />
  <E value="2" />
  <Tmin units="K" value="233.15" />
  <Tmax units="K" value="579.35" />
  </VaporPressure>
<HeatOfVaporization name="Heat of vaporization" units="J/kmol">
  <eqno value="106" />
  <A value="4.87E+07" />
  <B value="0.35468" />
  <C value="0.57965" />
  <D value="-0.92941" />
  <E value="0.39593" />
  <Tmin units="K" value="234.94" />
  <Tmax units="K" value="579.35" />
  </HeatOfVaporization>
<SolidHeatCapacityCp name="Solid heat capacity" units="J/kmol/K">
  <eqno value="100" />
  <A value="-9558700" />
  <B value="185260" />
  <C value="-1322.1" />
  <D value="4.147" />
  <E value="-0.0048149" />
  <Tmin units="K" value="169.71" />
  <Tmax units="K" value="266.15" />
  </SolidHeatCapacityCp>
<LiquidHeatCapacityCp name="Liquid heat capacity" units="J/kmol/K">
  <eqno value="16" />
  <A value="84631" />
  <B value="-77.085" />
  <C value="9.4174" />
  <D value="0.0060386" />
  <E value="-0.0000042543" />
  <Tmin units="K" value="234.94" />
  <Tmax units="K" value="357.31" />
  </LiquidHeatCapacityCp>
<IdealGasHeatCapacityCp name="Ideal gas heat capacity" units="J/kmol/K">
  <eqno value="16" />
  <A value="31580" />
  <B value="-546.03" />
  <C value="12.548" />
  <D value="-0.00032144" />
  <E value="9.6227E-08" />
  <Tmin units="K" value="150" />
  <Tmax units="K" value="1500" />
  </IdealGasHeatCapacityCp>
<SecondVirialCoefficient name="Second virial coefficient" units="m3/kmol">
  <eqno value="104" />
  <A value="0.14506" />
  <B value="-254.09" />
  <C value="-14.715" />
  <D value="-955.11" />
  <E value="2193.7" />
  <Tmin units="K" value="280" />
  <Tmax units="K" value="1500" />
  </SecondVirialCoefficient>
<LiquidViscosity name="Liquid viscosity" units="Pa.s">
  <eqno value="101" />
  <A value="-15.561" />
  <B value="1306.6" />
  <C value="0.66009" />
  <D value="3.2071E-07" />
  <E value="2" />
  <Tmin units="K" value="250" />
  <Tmax units="K" value="480" />
  </LiquidViscosity>
<VaporViscosity name="Vapour viscosity" units="Pa.s">
  <eqno value="102" />
  <A value="0.0000010722" />
  <B value="0.54275" />
  <C value="557.27" />
  <D value="2874.5" />
  <Tmin units="K" value="234.94" />
  <Tmax units="K" value="1000" />
  </VaporViscosity>
<LiquidThermalConductivity name="Liquid thermal conductivity" units="W/m/K">
  <eqno value="16" />
  <A value="0.024119" />
  <B value="-20.319" />
  <C value="-1.5338" />
  <D value="-0.0014869" />
  <E value="-6.6677E-07" />
  <Tmin units="K" value="234.94" />
  <Tmax units="K" value="393.15" />
  </LiquidThermalConductivity>
<VaporThermalConductivity name="Vapour thermal conductivity" units="W/m/K">
  <eqno value="102" />
  <A value="0.00013168" />
  <B value="0.98328" />
  <C value="649.4" />
  <D value="-5290.1" />
  <Tmin units="K" value="234.94" />
  <Tmax units="K" value="1000" />
  </VaporThermalConductivity>
<SurfaceTension name="Surface tension" units="N/m">
  <eqno value="16" />
  <A value="-0.0069688" />
  <B value="140.5" />
  <C value="-4.0531" />
  <D value="0.0044052" />
  <E value="-0.000011144" />
  <Tmin units="K" value="234.94" />
  <Tmax units="K" value="579.35" />
  </SurfaceTension>
<RPPHeatCapacityCp name="Ideal gas heat capacity (RPP)" units="J/kmol/K">
  <eqno value="100" />
  <A value="25467" />
  <B value="12.638" />
  <C value="0.79104" />
  <D value="-0.0011748" />
  <E value="5.0619E-07" />
  <Tmin units="K" value="50" />
  <Tmax units="K" value="1000" />
  </RPPHeatCapacityCp>
<RelativeStaticPermittivity name="Relative static permittivity" units="_">
  <eqno value="120" />
  <A value="-2.19455" />
  <B value="-1400" />
  <C value="-8.4" />
  <Tmin units="K" value="269.7056" />
  <Tmax units="K" value="439.7056" />
  </RelativeStaticPermittivity>
<AntoineVaporPressure name="Antoine" units="Pa">
  <eqno value="10" />
  <A value="21.049" />
  <B value="2962.4" />
  <C value="-46.375" />
  <Tmin units="K" value="351.52" />
  <Tmax units="K" value="513.15" />
  </AntoineVaporPressure>
<LiquidViscosityRPS name="Liquid viscosity (RPS)" units="Pa.s">
  <eqno value="13" />
  <A value="-0.34111" />
  <B value="-0.034802" />
  <C value="0.000037492" />
  <Tmin units="K" value="250" />
  <Tmax units="K" value="393.15" />
  </LiquidViscosityRPS>
<COSTALDVolume name="COSTLD characteristic volume (V*)" units="m3/kmol" value="0.22777" />
<DiameterLJ name="Lennard Jones diameter" units="m" value="5.880023E-10" />
<EnergyLJ name="Lennard Jones energy" units="K" value="265.0838" />
<RacketParameter name="Rackett parameter" units="_" value="0.274238" />
<FullerVolume name="Fuller et al. diffusion volume" units="_" value="95.74" />
<MatthiasCopemanC2 name="Mathias-Copeman C2" units="_" value="-0.64559" />
<Parachor name="Parachor" units="kg0.25.m3/s0.5/kmol" value="0.0333" />
<SpecificGravity name="Specific gravity" units="_" value="1.071" />
<Charge name="Charge" units="_" value="0" />
<CostaldAcentricFactor name="SRK acentric factor" units="_" value="0.19336" />
<WilsonVolume name="Wilson volume" units="m3/kmol" value="0.0794773" />
<UniquacR name="UNIQUAC r" units="_" value="2.8569" />
<UniquacQ name="UNIQUAC q" units="_" value="2.14" />
<MatthiasCopemanC3 name="Mathias-Copeman C3" units="_" value="1.5664" />
<ChaoSeaderAcentricFactor name="Chao-Seader acentric factor" units="_" value="0.192846" />
<ChaoSeaderSolubilityParameter name="Chao-Seader solubility parameter" units="J0.5/m1.5" value="20219.8" />
<ChaoSeaderLiquidVolume name="Chao-Seader liquid volume" units="m3/kmol" value="0.0794773" />
<UnifacVLE name="UNIFAC">
  <group id="106" value="1" />
  </UnifacVLE>
<GCmethod name="PPR78">
  <group id="106" value="1" />
  </GCmethod>
<Umr name="UMR">
  <group id="106" value="1" />
  </Umr>
<CAS name="CAS number" value="110-02-1" />
<Smiles name="SMILES" value="S1C=CC=C1" />
</compound>

