<compound>
<LibraryIndex name="Index" value="143" />
<CompoundID name="Name" value="trans-1,2-dimethylcyclohexane" />
<StructureFormula name="Structure" value="-CH(CH3)CH(CH3)(CH2)4-" />
<Family name="Family" value="7" />
<CriticalTemperature name="Critical temperature" units="K" value="596.15" />
<CriticalPressure name="Critical pressure" units="Pa" value="2938430" />
<CriticalVolume name="Critical volume" units="m3/kmol" value="0.46" />
<CriticalCompressibility name="Critical compressibility factor" units="_" value="0.273" />
<NormalBoilingPointTemperature name="Normal boiling point" units="K" value="396.58" />
<NormalMeltingPointTemperature name="Melting point" units="K" value="184.99" />
<TriplePointTemperature name="Triple point temperature" units="K" value="184.99" />
<TriplePointPressure name="Triple point pressure" units="Pa" value="0.0803872" />
<MolecularWeight name="Molecular weight" units="kg/kmol" value="112.2126" />
<LiquidVolumeAtNormalBoilingPoint name="Liquid molar volume at normal boiling point" units="m3/kmol" value="0.145347" />
<AcentricityFactor name="Acentric factor" units="_" value="0.2416" />
<RadiusOfGyration name="Radius of gyration" units="m" value="3.883E-10" />
<SolubilityParameter name="Solubility parameter" units="J0.5/m1.5" value="15780" />
<DipoleMoment name="Dipole moment" units="Coulomb.m" value="0" />
<VanDerWaalsVolume name="Van der Waals volume" units="m3/kmol" value="0.08068" />
<VanDerWaalsArea name="Van der Waals area" units="m2/kmol" value="1.021E+09" />
<HeatOfFormation name="IG heat of formation" units="J/kmol" value="-1.79996E+08" />
<GibbsEnergyOfFormation name="IG Gibbs energy of formation" units="J/kmol" value="3.44761E+07" />
<AbsEntropy name="IG absolute entropy" units="J/kmol/K" value="370912" />
<HeatOfFusionAtMeltingPoint name="Heat of fusion at melting point" units="J/kmol" value="1.04223E+07" />
<MatthiasCopemanC1 name="Mathias-Copeman C1" units="_" value="0.81029" />
<HeatOfCombustion name="Standard net heat of combustion LHV" units="J/kmol" value="-4.86436E+09" />
<SolidDensity name="Solid density" units="kmol/m3">
  <eqno value="2" />
  <A value="9.6758" />
  <B value="-0.0058139" />
  <C value="0" />
  <D value="0" />
  <E value="0" />
  <Tmin units="K" value="74" />
  <Tmax units="K" value="184.99" />
  </SolidDensity>
<LiquidDensity name="Liquid density" units="kmol/m3">
  <eqno value="105" />
  <A value="0.54418" />
  <B value="0.25029" />
  <C value="596.15" />
  <D value="0.26582" />
  <Tmin units="K" value="184.99" />
  <Tmax units="K" value="574.51" />
  </LiquidDensity>
<VaporPressure name="Vapour pressure" units="Pa">
  <eqno value="101" />
  <A value="78.951" />
  <B value="-6905.8" />
  <C value="-8.4915" />
  <D value="0.0000050406" />
  <E value="2" />
  <Tmin units="K" value="184.99" />
  <Tmax units="K" value="596.15" />
  </VaporPressure>
<HeatOfVaporization name="Heat of vaporization" units="J/kmol">
  <eqno value="106" />
  <A value="6.3964E+07" />
  <B value="1.6946" />
  <C value="-3.2086" />
  <D value="3.1663" />
  <E value="-1.1947" />
  <Tmin units="K" value="184.99" />
  <Tmax units="K" value="574.51" />
  </HeatOfVaporization>
<SolidHeatCapacityCp name="Solid heat capacity" units="J/kmol/K">
  <eqno value="100" />
  <A value="-13403" />
  <B value="1490.6" />
  <C value="-9.8224" />
  <D value="0.046599" />
  <E value="-0.000082592" />
  <Tmin units="K" value="11.99" />
  <Tmax units="K" value="172.45" />
  </SolidHeatCapacityCp>
<LiquidHeatCapacityCp name="Liquid heat capacity" units="J/kmol/K">
  <eqno value="16" />
  <A value="107760" />
  <B value="95.278" />
  <C value="8.9456" />
  <D value="0.0091345" />
  <E value="-0.000005166" />
  <Tmin units="K" value="183.68" />
  <Tmax units="K" value="396.58" />
  </LiquidHeatCapacityCp>
<IdealGasHeatCapacityCp name="Ideal gas heat capacity" units="J/kmol/K">
  <eqno value="16" />
  <A value="97739" />
  <B value="-799.79" />
  <C value="13.856" />
  <D value="-0.00049041" />
  <E value="1.3436E-07" />
  <Tmin units="K" value="200" />
  <Tmax units="K" value="1500" />
  </IdealGasHeatCapacityCp>
<SecondVirialCoefficient name="Second virial coefficient" units="m3/kmol">
  <eqno value="104" />
  <A value="0.23992" />
  <B value="-317.9" />
  <C value="-41.61" />
  <D value="-1205.2" />
  <E value="1133.9" />
  <Tmin units="K" value="298.08" />
  <Tmax units="K" value="2000" />
  </SecondVirialCoefficient>
<LiquidViscosity name="Liquid viscosity" units="Pa.s">
  <eqno value="101" />
  <A value="-9.8695" />
  <B value="1124.4" />
  <C value="-0.19468" />
  <D value="4.6083E-07" />
  <E value="2" />
  <Tmin units="K" value="184.99" />
  <Tmax units="K" value="472" />
  </LiquidViscosity>
<VaporViscosity name="Vapour viscosity" units="Pa.s">
  <eqno value="102" />
  <A value="0.0000004616" />
  <B value="0.56409" />
  <C value="251.76" />
  <D value="9969.9" />
  <Tmin units="K" value="396.58" />
  <Tmax units="K" value="1000" />
  </VaporViscosity>
<LiquidThermalConductivity name="Liquid thermal conductivity" units="W/m/K">
  <eqno value="16" />
  <A value="-0.096966" />
  <B value="-4.6856" />
  <C value="-1.2678" />
  <D value="-0.00075424" />
  <E value="-4.7962E-07" />
  <Tmin units="K" value="184.99" />
  <Tmax units="K" value="596.15" />
  </LiquidThermalConductivity>
<VaporThermalConductivity name="Vapour thermal conductivity" units="W/m/K">
  <eqno value="102" />
  <A value="0.014659" />
  <B value="0.3596" />
  <C value="28.311" />
  <D value="846250" />
  <Tmin units="K" value="184.99" />
  <Tmax units="K" value="1000" />
  </VaporThermalConductivity>
<SurfaceTension name="Surface tension" units="N/m">
  <eqno value="16" />
  <A value="-0.013995" />
  <B value="21.416" />
  <C value="-2.9689" />
  <D value="-0.00029298" />
  <E value="-0.0000033433" />
  <Tmin units="K" value="184.99" />
  <Tmax units="K" value="574.51" />
  </SurfaceTension>
<RPPHeatCapacityCp name="Ideal gas heat capacity (RPP)" units="J/kmol/K">
  <eqno value="4" />
  <A value="-46666" />
  <B value="819.31" />
  <C value="-0.42362" />
  <D value="0.000077591" />
  <Tmin units="K" value="200" />
  <Tmax units="K" value="1500" />
  </RPPHeatCapacityCp>
<AntoineVaporPressure name="Antoine" units="Pa">
  <eqno value="10" />
  <A value="20.538" />
  <B value="3061.4" />
  <C value="-56.887" />
  <Tmin units="K" value="358.11" />
  <Tmax units="K" value="531.23" />
  </AntoineVaporPressure>
<LiquidViscosityRPS name="Liquid viscosity (RPS)" units="Pa.s">
  <eqno value="12" />
  <A value="-2.4752" />
  <B value="-0.015117" />
  <Tmin units="K" value="184.99" />
  <Tmax units="K" value="396.58" />
  </LiquidViscosityRPS>
<COSTALDVolume name="COSTLD characteristic volume (V*)" units="m3/kmol" value="0.438832" />
<DiameterLJ name="Lennard Jones diameter" units="m" value="6.840729E-10" />
<EnergyLJ name="Lennard Jones energy" units="K" value="363.458" />
<RacketParameter name="Rackett parameter" units="_" value="0.273" />
<FullerVolume name="Fuller et al. diffusion volume" units="_" value="164.16" />
<MatthiasCopemanC2 name="Mathias-Copeman C2" units="_" value="0.24932" />
<Parachor name="Parachor" units="kg0.25.m3/s0.5/kmol" value="0.0569831" />
<SpecificGravity name="Specific gravity" units="_" value="0.780271" />
<Charge name="Charge" units="_" value="0" />
<CostaldAcentricFactor name="SRK acentric factor" units="_" value="0.2416" />
<WilsonVolume name="Wilson volume" units="m3/kmol" value="0.145347" />
<UniquacR name="UNIQUAC r" units="_" value="5.3936" />
<UniquacQ name="UNIQUAC q" units="_" value="4.312" />
<ApiSrkS2 name="API-SRK s2" units="_" value="0.00729" />
<MatthiasCopemanC3 name="Mathias-Copeman C3" units="_" value="-0.23737" />
<ChaoSeaderAcentricFactor name="Chao-Seader acentric factor" units="_" value="0.2416" />
<ChaoSeaderSolubilityParameter name="Chao-Seader solubility parameter" units="J0.5/m1.5" value="15780" />
<ChaoSeaderLiquidVolume name="Chao-Seader liquid volume" units="m3/kmol" value="0.145347" />
<UnifacVLE name="UNIFAC">
  <group id="1" value="2" />
  <group id="2" value="4" />
  <group id="3" value="2" />
  </UnifacVLE>
<UnifacLLE name="UNIFAC-LLE">
  <group id="1" value="2" />
  <group id="2" value="4" />
  <group id="3" value="2" />
  </UnifacLLE>
<Asog name="ASOG">
  <group id="1" value="2" />
  <group id="2" value="4" />
  <group id="3" value="2" />
  </Asog>
<GCmethod name="PPR78">
  <group id="1" value="2" />
  <group id="10" value="4" />
  <group id="11" value="2" />
  </GCmethod>
<Umr name="UMR">
  <group id="1" value="2" />
  <group id="2" value="4" />
  <group id="3" value="2" />
  </Umr>
<ModifiedUnifac name="Modified UNIFAC">
  <group id="1" value="2" />
  <group id="78" value="4" />
  <group id="79" value="2" />
  </ModifiedUnifac>
<CAS name="CAS number" value="6876-23-9" />
<Smiles name="SMILES" value="C1[C@](C)([H])([C@]([H])(C)(CCC1))" />
</compound>

