<compound>
<LibraryIndex name="Index" value="145" />
<CompoundID name="Name" value="trans-1,3-dimethylcyclohexane" />
<StructureFormula name="Structure" value="-CH(CH3)CH2CH(CH3)(CH2)3-" />
<Family name="Family" value="7" />
<CriticalTemperature name="Critical temperature" units="K" value="598.15" />
<CriticalPressure name="Critical pressure" units="Pa" value="2938430" />
<CriticalVolume name="Critical volume" units="m3/kmol" value="0.46" />
<CriticalCompressibility name="Critical compressibility factor" units="_" value="0.272" />
<NormalBoilingPointTemperature name="Normal boiling point" units="K" value="397.61" />
<NormalMeltingPointTemperature name="Melting point" units="K" value="183.07" />
<TriplePointTemperature name="Triple point temperature" units="K" value="183.05" />
<TriplePointPressure name="Triple point pressure" units="Pa" value="0.0422148" />
<MolecularWeight name="Molecular weight" units="kg/kmol" value="112.2126" />
<LiquidVolumeAtNormalBoilingPoint name="Liquid molar volume at normal boiling point" units="m3/kmol" value="0.143768" />
<AcentricityFactor name="Acentric factor" units="_" value="0.2356" />
<RadiusOfGyration name="Radius of gyration" units="m" value="3.982E-10" />
<SolubilityParameter name="Solubility parameter" units="J0.5/m1.5" value="16040" />
<DipoleMoment name="Dipole moment" units="Coulomb.m" value="0" />
<VanDerWaalsVolume name="Van der Waals volume" units="m3/kmol" value="0.08068" />
<VanDerWaalsArea name="Van der Waals area" units="m2/kmol" value="1.021E+09" />
<HeatOfFormation name="IG heat of formation" units="J/kmol" value="-1.76565E+08" />
<GibbsEnergyOfFormation name="IG Gibbs energy of formation" units="J/kmol" value="3.63171E+07" />
<AbsEntropy name="IG absolute entropy" units="J/kmol/K" value="376225" />
<HeatOfFusionAtMeltingPoint name="Heat of fusion at melting point" units="J/kmol" value="9865870" />
<MatthiasCopemanC1 name="Mathias-Copeman C1" units="_" value="0.80546" />
<HeatOfCombustion name="Standard net heat of combustion LHV" units="J/kmol" value="-4.86695E+09" />
<SolidDensity name="Solid density" units="kmol/m3">
  <eqno value="2" />
  <A value="9.8511" />
  <B value="-0.0059845" />
  <C value="0" />
  <D value="0" />
  <E value="0" />
  <Tmin units="K" value="73.22" />
  <Tmax units="K" value="183.05" />
  </SolidDensity>
<LiquidDensity name="Liquid density" units="kmol/m3">
  <eqno value="105" />
  <A value="0.51304" />
  <B value="0.23992" />
  <C value="598.15" />
  <D value="0.27441" />
  <Tmin units="K" value="183.05" />
  <Tmax units="K" value="576.16" />
  </LiquidDensity>
<VaporPressure name="Vapour pressure" units="Pa">
  <eqno value="101" />
  <A value="80.341" />
  <B value="-7070.2" />
  <C value="-8.6503" />
  <D value="0.0000047054" />
  <E value="2" />
  <Tmin units="K" value="183.05" />
  <Tmax units="K" value="598" />
  </VaporPressure>
<HeatOfVaporization name="Heat of vaporization" units="J/kmol">
  <eqno value="106" />
  <A value="6.9382E+07" />
  <B value="2.1184" />
  <C value="-4.4766" />
  <D value="4.6776" />
  <E value="-1.8318" />
  <Tmin units="K" value="183.05" />
  <Tmax units="K" value="598" />
  </HeatOfVaporization>
<SolidHeatCapacityCp name="Solid heat capacity" units="J/kmol/K">
  <eqno value="100" />
  <A value="-2368.7" />
  <B value="925.58" />
  <C value="0.83506" />
  <D value="-0.035655" />
  <E value="0.00013914" />
  <Tmin units="K" value="26.36" />
  <Tmax units="K" value="171.93" />
  </SolidHeatCapacityCp>
<LiquidHeatCapacityCp name="Liquid heat capacity" units="J/kmol/K">
  <eqno value="16" />
  <A value="121960" />
  <B value="76.643" />
  <C value="8.8176" />
  <D value="0.0095602" />
  <E value="-0.0000057205" />
  <Tmin units="K" value="183.05" />
  <Tmax units="K" value="397.61" />
  </LiquidHeatCapacityCp>
<IdealGasHeatCapacityCp name="Ideal gas heat capacity" units="J/kmol/K">
  <eqno value="16" />
  <A value="101700" />
  <B value="-844.25" />
  <C value="13.931" />
  <D value="-0.00056374" />
  <E value="1.5762E-07" />
  <Tmin units="K" value="200" />
  <Tmax units="K" value="1500" />
  </IdealGasHeatCapacityCp>
<SecondVirialCoefficient name="Second virial coefficient" units="m3/kmol">
  <eqno value="104" />
  <A value="0.24033" />
  <B value="-319.57" />
  <C value="-41.842" />
  <D value="-2180.6" />
  <E value="3918.4" />
  <Tmin units="K" value="299" />
  <Tmax units="K" value="2000" />
  </SecondVirialCoefficient>
<LiquidViscosity name="Liquid viscosity" units="Pa.s">
  <eqno value="101" />
  <A value="-10.854" />
  <B value="1074.4" />
  <C value="-0.03203" />
  <D value="4.561E-08" />
  <E value="2" />
  <Tmin units="K" value="183.07" />
  <Tmax units="K" value="478.4" />
  </LiquidViscosity>
<VaporViscosity name="Vapour viscosity" units="Pa.s">
  <eqno value="102" />
  <A value="0.0000023976" />
  <B value="0.3653" />
  <C value="664.66" />
  <D value="3836.7" />
  <Tmin units="K" value="397.61" />
  <Tmax units="K" value="1000" />
  </VaporViscosity>
<LiquidThermalConductivity name="Liquid thermal conductivity" units="W/m/K">
  <eqno value="16" />
  <A value="-0.046977" />
  <B value="2.8897" />
  <C value="-1.5646" />
  <D value="-0.00046419" />
  <E value="-0.0000013304" />
  <Tmin units="K" value="183.05" />
  <Tmax units="K" value="397.61" />
  </LiquidThermalConductivity>
<VaporThermalConductivity name="Vapour thermal conductivity" units="W/m/K">
  <eqno value="102" />
  <A value="0.016485" />
  <B value="0.34326" />
  <C value="5.6687" />
  <D value="894520" />
  <Tmin units="K" value="183.05" />
  <Tmax units="K" value="1000" />
  </VaporThermalConductivity>
<SurfaceTension name="Surface tension" units="N/m">
  <eqno value="16" />
  <A value="-0.0081604" />
  <B value="50.552" />
  <C value="-3.3636" />
  <D value="0.0009936" />
  <E value="-0.0000060087" />
  <Tmin units="K" value="183.05" />
  <Tmax units="K" value="598" />
  </SurfaceTension>
<RPPHeatCapacityCp name="Ideal gas heat capacity (RPP)" units="J/kmol/K">
  <eqno value="4" />
  <A value="-40884" />
  <B value="783.56" />
  <C value="-0.38232" />
  <D value="0.000063738" />
  <Tmin units="K" value="200" />
  <Tmax units="K" value="1500" />
  </RPPHeatCapacityCp>
<AntoineVaporPressure name="Antoine" units="Pa">
  <eqno value="10" />
  <A value="20.425" />
  <B value="2962.4" />
  <C value="-64.71" />
  <Tmin units="K" value="360.62" />
  <Tmax units="K" value="532.48" />
  </AntoineVaporPressure>
<LiquidViscosityRPS name="Liquid viscosity (RPS)" units="Pa.s">
  <eqno value="12" />
  <A value="-4.0122" />
  <B value="-0.010989" />
  <Tmin units="K" value="183.07" />
  <Tmax units="K" value="478.4" />
  </LiquidViscosityRPS>
<COSTALDVolume name="COSTLD characteristic volume (V*)" units="m3/kmol" value="0.438832" />
<DiameterLJ name="Lennard Jones diameter" units="m" value="6.87092E-10" />
<EnergyLJ name="Lennard Jones energy" units="K" value="359.8914" />
<RacketParameter name="Rackett parameter" units="_" value="0.257944" />
<FullerVolume name="Fuller et al. diffusion volume" units="_" value="164.16" />
<MatthiasCopemanC2 name="Mathias-Copeman C2" units="_" value="0" />
<Parachor name="Parachor" units="kg0.25.m3/s0.5/kmol" value="0.0565457" />
<SpecificGravity name="Specific gravity" units="_" value="0.790566" />
<Charge name="Charge" units="_" value="0" />
<CostaldAcentricFactor name="SRK acentric factor" units="_" value="0.2356" />
<WilsonVolume name="Wilson volume" units="m3/kmol" value="0.143768" />
<UniquacR name="UNIQUAC r" units="_" value="5.3936" />
<UniquacQ name="UNIQUAC q" units="_" value="4.312" />
<ApiSrkS2 name="API-SRK s2" units="_" value="0.014903" />
<MatthiasCopemanC3 name="Mathias-Copeman C3" units="_" value="0" />
<ChaoSeaderAcentricFactor name="Chao-Seader acentric factor" units="_" value="0.2356" />
<ChaoSeaderSolubilityParameter name="Chao-Seader solubility parameter" units="J0.5/m1.5" value="16040" />
<ChaoSeaderLiquidVolume name="Chao-Seader liquid volume" units="m3/kmol" value="0.143768" />
<UnifacVLE name="UNIFAC">
  <group id="1" value="2" />
  <group id="2" value="4" />
  <group id="3" value="2" />
  </UnifacVLE>
<UnifacLLE name="UNIFAC-LLE">
  <group id="1" value="2" />
  <group id="2" value="4" />
  <group id="3" value="2" />
  </UnifacLLE>
<Asog name="ASOG">
  <group id="1" value="2" />
  <group id="2" value="4" />
  <group id="3" value="2" />
  </Asog>
<GCmethod name="PPR78">
  <group id="1" value="2" />
  <group id="10" value="4" />
  <group id="11" value="2" />
  </GCmethod>
<Umr name="UMR">
  <group id="1" value="2" />
  <group id="2" value="4" />
  <group id="3" value="2" />
  </Umr>
<ModifiedUnifac name="Modified UNIFAC">
  <group id="1" value="2" />
  <group id="78" value="4" />
  <group id="79" value="2" />
  </ModifiedUnifac>
<CAS name="CAS number" value="2207-03-6" />
<Smiles name="SMILES" value="C1[C@](C)([H])(C[C@]([H])(C)(CC1))" />
</compound>

