<compound>
<LibraryIndex name="Index" value="218" />
<CompoundID name="Name" value="trans-2-hexene" />
<StructureFormula name="Structure" value="CH3CHCH(CH2)2CH3" />
<Family name="Family" value="10" />
<CriticalTemperature name="Critical temperature" units="K" value="509.8" />
<CriticalPressure name="Critical pressure" units="Pa" value="3168000" />
<CriticalVolume name="Critical volume" units="m3/kmol" value="0.345" />
<CriticalCompressibility name="Critical compressibility factor" units="_" value="0.258" />
<NormalBoilingPointTemperature name="Normal boiling point" units="K" value="341.02" />
<NormalMeltingPointTemperature name="Melting point" units="K" value="140.17" />
<TriplePointTemperature name="Triple point temperature" units="K" value="140.17" />
<TriplePointPressure name="Triple point pressure" units="Pa" value="0.00179" />
<MolecularWeight name="Molecular weight" units="kg/kmol" value="84.15948" />
<LiquidVolumeAtNormalBoilingPoint name="Liquid molar volume at normal boiling point" units="m3/kmol" value="0.125" />
<AcentricityFactor name="Acentric factor" units="_" value="0.288635" />
<RadiusOfGyration name="Radius of gyration" units="m" value="3.616E-10" />
<SolubilityParameter name="Solubility parameter" units="J0.5/m1.5" value="15250" />
<DipoleMoment name="Dipole moment" units="Coulomb.m" value="0" />
<VanDerWaalsVolume name="Van der Waals volume" units="m3/kmol" value="0.06474" />
<VanDerWaalsArea name="Van der Waals area" units="m2/kmol" value="9.1E+08" />
<HeatOfFormation name="IG heat of formation" units="J/kmol" value="-5.381E+07" />
<GibbsEnergyOfFormation name="IG Gibbs energy of formation" units="J/kmol" value="7.675E+07" />
<AbsEntropy name="IG absolute entropy" units="J/kmol/K" value="380600" />
<HeatOfFusionAtMeltingPoint name="Heat of fusion at melting point" units="J/kmol" value="8255030" />
<MatthiasCopemanC1 name="Mathias-Copeman C1" units="_" value="0.9628" />
<HeatOfCombustion name="Standard net heat of combustion LHV" units="J/kmol" value="-3.72648E+09" />
<SolidDensity name="Solid density" units="kmol/m3">
  <eqno value="2" />
  <A value="12.09" />
  <B value="-0.0094736" />
  <C value="0" />
  <D value="0" />
  <E value="0" />
  <Tmin units="K" value="56.07" />
  <Tmax units="K" value="140.17" />
  </SolidDensity>
<LiquidDensity name="Liquid density" units="kmol/m3">
  <eqno value="105" />
  <A value="0.7854" />
  <B value="0.271" />
  <C value="509.8" />
  <D value="0.28571" />
  <Tmin units="K" value="140.17" />
  <Tmax units="K" value="509.8" />
  </LiquidDensity>
<VaporPressure name="Vapour pressure" units="Pa">
  <eqno value="101" />
  <A value="102.7613" />
  <B value="-6858.249" />
  <C value="-12.46469" />
  <D value="0.0000134849" />
  <E value="2" />
  <Tmin units="K" value="140.17" />
  <Tmax units="K" value="509.8" />
  </VaporPressure>
<HeatOfVaporization name="Heat of vaporization" units="J/kmol">
  <eqno value="106" />
  <A value="4.402196E+07" />
  <B value="0.563356" />
  <C value="-0.497314" />
  <D value="0.306975" />
  <E value="0.0161359" />
  <Tmin units="K" value="140.17" />
  <Tmax units="K" value="490.35" />
  </HeatOfVaporization>
<SolidHeatCapacityCp name="Solid heat capacity" units="J/kmol/K">
  <eqno value="102" />
  <A value="2070" />
  <B value="0.79267" />
  <C value="0" />
  <D value="0" />
  <Tmin units="K" value="50" />
  <Tmax units="K" value="140.17" />
  </SolidHeatCapacityCp>
<LiquidHeatCapacityCp name="Liquid heat capacity" units="J/kmol/K">
  <eqno value="16" />
  <A value="145330" />
  <B value="591.61" />
  <C value="0.45085" />
  <D value="0.040176" />
  <E value="-0.000043449" />
  <Tmin units="K" value="140.17" />
  <Tmax units="K" value="341.02" />
  </LiquidHeatCapacityCp>
<IdealGasHeatCapacityCp name="Ideal gas heat capacity" units="J/kmol/K">
  <eqno value="16" />
  <A value="96839" />
  <B value="-758.81" />
  <C value="13.112" />
  <D value="-0.00018911" />
  <E value="4.7057E-08" />
  <Tmin units="K" value="200" />
  <Tmax units="K" value="1500" />
  </IdealGasHeatCapacityCp>
<SecondVirialCoefficient name="Second virial coefficient" units="m3/kmol">
  <eqno value="104" />
  <A value="0.21635" />
  <B value="-262.77" />
  <C value="-18.97" />
  <D value="-7202.8" />
  <E value="15014" />
  <Tmin units="K" value="256.58" />
  <Tmax units="K" value="2000" />
  </SecondVirialCoefficient>
<LiquidViscosity name="Liquid viscosity" units="Pa.s">
  <eqno value="101" />
  <A value="-11.296" />
  <B value="798.85" />
  <C value="0.074688" />
  <D value="-2.5765E-07" />
  <E value="2" />
  <Tmin units="K" value="140.17" />
  <Tmax units="K" value="341.02" />
  </LiquidViscosity>
<VaporViscosity name="Vapour viscosity" units="Pa.s">
  <eqno value="102" />
  <A value="3.5985E-08" />
  <B value="0.91455" />
  <C value="-9.2013" />
  <D value="1687.6" />
  <Tmin units="K" value="140.17" />
  <Tmax units="K" value="1000" />
  </VaporViscosity>
<LiquidThermalConductivity name="Liquid thermal conductivity" units="W/m/K">
  <eqno value="16" />
  <A value="-0.091076" />
  <B value="-0.14352" />
  <C value="-1.1963" />
  <D value="-0.00093801" />
  <E value="-0.0000007123" />
  <Tmin units="K" value="140.17" />
  <Tmax units="K" value="341.02" />
  </LiquidThermalConductivity>
<VaporThermalConductivity name="Vapour thermal conductivity" units="W/m/K">
  <eqno value="102" />
  <A value="0.000094853" />
  <B value="1.0175" />
  <C value="2.8366" />
  <D value="154410" />
  <Tmin units="K" value="140.17" />
  <Tmax units="K" value="1000" />
  </VaporThermalConductivity>
<SurfaceTension name="Surface tension" units="N/m">
  <eqno value="16" />
  <A value="-0.024183" />
  <B value="-0.32166" />
  <C value="-2.4994" />
  <D value="-0.0018373" />
  <E value="-0.0000012135" />
  <Tmin units="K" value="140.17" />
  <Tmax units="K" value="490.35" />
  </SurfaceTension>
<RPPHeatCapacityCp name="Ideal gas heat capacity (RPP)" units="J/kmol/K">
  <eqno value="4" />
  <A value="19670" />
  <B value="436.93" />
  <C value="-0.1814" />
  <D value="0.000023027" />
  <Tmin units="K" value="200" />
  <Tmax units="K" value="1500" />
  </RPPHeatCapacityCp>
<AntoineVaporPressure name="Antoine" units="Pa">
  <eqno value="10" />
  <A value="20.853" />
  <B value="2752.4" />
  <C value="-45.95" />
  <Tmin units="K" value="308.15" />
  <Tmax units="K" value="451.44" />
  </AntoineVaporPressure>
<LiquidViscosityRPS name="Liquid viscosity (RPS)" units="Pa.s">
  <eqno value="12" />
  <A value="-3.6015" />
  <B value="-0.015521" />
  <Tmin units="K" value="140.17" />
  <Tmax units="K" value="341.02" />
  </LiquidViscosityRPS>
<COSTALDVolume name="COSTLD characteristic volume (V*)" units="m3/kmol" value="0.347104" />
<DiameterLJ name="Lennard Jones diameter" units="m" value="6.651318E-10" />
<EnergyLJ name="Lennard Jones energy" units="K" value="253.5968" />
<RacketParameter name="Rackett parameter" units="_" value="0.258" />
<FullerVolume name="Fuller et al. diffusion volume" units="_" value="123.12" />
<MatthiasCopemanC2 name="Mathias-Copeman C2" units="_" value="-0.32659" />
<Parachor name="Parachor" units="kg0.25.m3/s0.5/kmol" value="0.0459435" />
<SpecificGravity name="Specific gravity" units="_" value="0.682799" />
<Charge name="Charge" units="_" value="0" />
<CostaldAcentricFactor name="SRK acentric factor" units="_" value="0.288635" />
<WilsonVolume name="Wilson volume" units="m3/kmol" value="0.125" />
<UniquacR name="UNIQUAC r" units="_" value="4.2677" />
<UniquacQ name="UNIQUAC q" units="_" value="3.643" />
<ApiSrkS2 name="API-SRK s2" units="_" value="0.004891" />
<MatthiasCopemanC3 name="Mathias-Copeman C3" units="_" value="0.67446" />
<ChaoSeaderAcentricFactor name="Chao-Seader acentric factor" units="_" value="0.288635" />
<ChaoSeaderSolubilityParameter name="Chao-Seader solubility parameter" units="J0.5/m1.5" value="15250" />
<ChaoSeaderLiquidVolume name="Chao-Seader liquid volume" units="m3/kmol" value="0.125" />
<UnifacVLE name="UNIFAC">
  <group id="1" value="2" />
  <group id="2" value="2" />
  <group id="6" value="1" />
  </UnifacVLE>
<UnifacLLE name="UNIFAC-LLE">
  <group id="1" value="2" />
  <group id="2" value="2" />
  <group id="6" value="1" />
  </UnifacLLE>
<Asog name="ASOG">
  <group id="1" value="2" />
  <group id="2" value="2" />
  <group id="6" value="1" />
  </Asog>
<GCmethod name="PPR78">
  <group id="1" value="2" />
  <group id="2" value="2" />
  <group id="18" value="2" />
  </GCmethod>
<Umr name="UMR">
  <group id="1" value="2" />
  <group id="2" value="2" />
  <group id="6" value="1" />
  </Umr>
<ModifiedUnifac name="Modified UNIFAC">
  <group id="1" value="2" />
  <group id="2" value="2" />
  <group id="6" value="1" />
  </ModifiedUnifac>
<CAS name="CAS number" value="4050-45-7" />
<Smiles name="SMILES" value="C/C=C/CCC" />
</compound>

