<compound>
<LibraryIndex name="Index" value="110" />
<CompoundID name="Name" value="trans-1,2-dimethylcyclopentane" />
<StructureFormula name="Structure" value="-CH(CH3)CH(CH3)(CH2)3-" />
<Family name="Family" value="6" />
<CriticalTemperature name="Critical temperature" units="K" value="553.15" />
<CriticalPressure name="Critical pressure" units="Pa" value="3445050" />
<CriticalVolume name="Critical volume" units="m3/kmol" value="0.36" />
<CriticalCompressibility name="Critical compressibility factor" units="_" value="0.27" />
<NormalBoilingPointTemperature name="Normal boiling point" units="K" value="365.02" />
<NormalMeltingPointTemperature name="Melting point" units="K" value="155.58" />
<TriplePointTemperature name="Triple point temperature" units="K" value="155.58" />
<TriplePointPressure name="Triple point pressure" units="Pa" value="0.00329595" />
<MolecularWeight name="Molecular weight" units="kg/kmol" value="98.18607" />
<LiquidVolumeAtNormalBoilingPoint name="Liquid molar volume at normal boiling point" units="m3/kmol" value="0.131474" />
<AcentricityFactor name="Acentric factor" units="_" value="0.2692" />
<RadiusOfGyration name="Radius of gyration" units="m" value="3.607E-10" />
<SolubilityParameter name="Solubility parameter" units="J0.5/m1.5" value="15760" />
<DipoleMoment name="Dipole moment" units="Coulomb.m" value="0" />
<VanDerWaalsVolume name="Van der Waals volume" units="m3/kmol" value="0.07045" />
<VanDerWaalsArea name="Van der Waals area" units="m2/kmol" value="8.86E+08" />
<HeatOfFormation name="IG heat of formation" units="J/kmol" value="-1.36566E+08" />
<GibbsEnergyOfFormation name="IG Gibbs energy of formation" units="J/kmol" value="3.84928E+07" />
<AbsEntropy name="IG absolute entropy" units="J/kmol/K" value="366811" />
<HeatOfFusionAtMeltingPoint name="Heat of fusion at melting point" units="J/kmol" value="7167190" />
<HeatOfCombustion name="Standard net heat of combustion LHV" units="J/kmol" value="-4.27609E+09" />
<SolidDensity name="Solid density" units="kmol/m3">
  <eqno value="2" />
  <A value="11.201" />
  <B value="-0.0080527" />
  <C value="0" />
  <D value="0" />
  <E value="0" />
  <Tmin units="K" value="62.23" />
  <Tmax units="K" value="155.58" />
  </SolidDensity>
<LiquidDensity name="Liquid density" units="kmol/m3">
  <eqno value="105" />
  <A value="0.77149" />
  <B value="0.27784" />
  <C value="553.15" />
  <D value="0.30964" />
  <Tmin units="K" value="155.58" />
  <Tmax units="K" value="532.23" />
  </LiquidDensity>
<VaporPressure name="Vapour pressure" units="Pa">
  <eqno value="101" />
  <A value="89.97" />
  <B value="-6815.6" />
  <C value="-10.323" />
  <D value="0.000008493" />
  <E value="2" />
  <Tmin units="K" value="155.58" />
  <Tmax units="K" value="553.15" />
  </VaporPressure>
<HeatOfVaporization name="Heat of vaporization" units="J/kmol">
  <eqno value="106" />
  <A value="5.4143E+07" />
  <B value="0.72069" />
  <C value="0.072069" />
  <D value="-0.93971" />
  <E value="0.57146" />
  <Tmin units="K" value="155.58" />
  <Tmax units="K" value="532.23" />
  </HeatOfVaporization>
<SolidHeatCapacityCp name="Solid heat capacity" units="J/kmol/K">
  <eqno value="1" />
  <A value="182070" />
  <Tmin units="K" value="0" />
  <Tmax units="K" value="553.15" />
  </SolidHeatCapacityCp>
<LiquidHeatCapacityCp name="Liquid heat capacity" units="J/kmol/K">
  <eqno value="16" />
  <A value="-27570" />
  <B value="-6.4733" />
  <C value="11.325" />
  <D value="0.0043522" />
  <E value="-0.0000035776" />
  <Tmin units="K" value="155.58" />
  <Tmax units="K" value="365.02" />
  </LiquidHeatCapacityCp>
<IdealGasHeatCapacityCp name="Ideal gas heat capacity" units="J/kmol/K">
  <eqno value="16" />
  <A value="86316" />
  <B value="-831.39" />
  <C value="13.757" />
  <D value="-0.0005975" />
  <E value="1.8263E-07" />
  <Tmin units="K" value="200" />
  <Tmax units="K" value="1500" />
  </IdealGasHeatCapacityCp>
<SecondVirialCoefficient name="Second virial coefficient" units="m3/kmol">
  <eqno value="104" />
  <A value="0.19751" />
  <B value="-158.14" />
  <C value="-48.305" />
  <D value="-2091.1" />
  <E value="-2117" />
  <Tmin units="K" value="276.5" />
  <Tmax units="K" value="2000" />
  </SecondVirialCoefficient>
<LiquidViscosity name="Liquid viscosity" units="Pa.s">
  <eqno value="101" />
  <A value="-10.501" />
  <B value="979.94" />
  <C value="-0.073247" />
  <D value="2.6464E-07" />
  <E value="2" />
  <Tmin units="K" value="155.58" />
  <Tmax units="K" value="508.65" />
  </LiquidViscosity>
<VaporViscosity name="Vapour viscosity" units="Pa.s">
  <eqno value="102" />
  <A value="0.0000015301" />
  <B value="0.42849" />
  <C value="479.07" />
  <D value="3.9541" />
  <Tmin units="K" value="365.02" />
  <Tmax units="K" value="1000" />
  </VaporViscosity>
<LiquidThermalConductivity name="Liquid thermal conductivity" units="W/m/K">
  <eqno value="16" />
  <A value="-0.028286" />
  <B value="5.044" />
  <C value="-1.6594" />
  <D value="-0.00043322" />
  <E value="-0.000001941" />
  <Tmin units="K" value="155.58" />
  <Tmax units="K" value="365.02" />
  </LiquidThermalConductivity>
<VaporThermalConductivity name="Vapour thermal conductivity" units="W/m/K">
  <eqno value="102" />
  <A value="0.0087025" />
  <B value="0.4463" />
  <C value="190.1" />
  <D value="689820" />
  <Tmin units="K" value="155.58" />
  <Tmax units="K" value="1000" />
  </VaporThermalConductivity>
<SurfaceTension name="Surface tension" units="N/m">
  <eqno value="16" />
  <A value="-0.013661" />
  <B value="20.324" />
  <C value="-2.8967" />
  <D value="-0.0007348" />
  <E value="-0.0000035142" />
  <Tmin units="K" value="155.58" />
  <Tmax units="K" value="532.23" />
  </SurfaceTension>
<RPPHeatCapacityCp name="Ideal gas heat capacity (RPP)" units="J/kmol/K">
  <eqno value="4" />
  <A value="-34423" />
  <B value="673.5" />
  <C value="-0.34508" />
  <D value="0.000064499" />
  <Tmin units="K" value="200" />
  <Tmax units="K" value="1500" />
  </RPPHeatCapacityCp>
<AntoineVaporPressure name="Antoine" units="Pa">
  <eqno value="10" />
  <A value="20.95" />
  <B value="3051.5" />
  <C value="-41.265" />
  <Tmin units="K" value="333.15" />
  <Tmax units="K" value="490.38" />
  </AntoineVaporPressure>
<LiquidViscosityRPS name="Liquid viscosity (RPS)" units="Pa.s">
  <eqno value="12" />
  <A value="-2.5731" />
  <B value="-0.016451" />
  <Tmin units="K" value="155.58" />
  <Tmax units="K" value="365.02" />
  </LiquidViscosityRPS>
<COSTALDVolume name="COSTLD characteristic volume (V*)" units="m3/kmol" value="0.379444" />
<DiameterLJ name="Lennard Jones diameter" units="m" value="6.388162E-10" />
<EnergyLJ name="Lennard Jones energy" units="K" value="324.0901" />
<RacketParameter name="Rackett parameter" units="_" value="0.27" />
<FullerVolume name="Fuller et al. diffusion volume" units="_" value="143.64" />
<Parachor name="Parachor" units="kg0.25.m3/s0.5/kmol" value="0.0500017" />
<SpecificGravity name="Specific gravity" units="_" value="0.75615" />
<Charge name="Charge" units="_" value="0" />
<CostaldAcentricFactor name="SRK acentric factor" units="_" value="0.2692" />
<WilsonVolume name="Wilson volume" units="m3/kmol" value="0.131474" />
<UniquacR name="UNIQUAC r" units="_" value="4.7192" />
<UniquacQ name="UNIQUAC q" units="_" value="3.772" />
<ApiSrkS2 name="API-SRK s2" units="_" value="-0.009015" />
<ChaoSeaderAcentricFactor name="Chao-Seader acentric factor" units="_" value="0.2692" />
<ChaoSeaderSolubilityParameter name="Chao-Seader solubility parameter" units="J0.5/m1.5" value="15760" />
<ChaoSeaderLiquidVolume name="Chao-Seader liquid volume" units="m3/kmol" value="0.131474" />
<UnifacVLE name="UNIFAC">
  <group id="1" value="2" />
  <group id="2" value="3" />
  <group id="3" value="2" />
  </UnifacVLE>
<UnifacLLE name="UNIFAC-LLE">
  <group id="1" value="2" />
  <group id="2" value="3" />
  <group id="3" value="2" />
  </UnifacLLE>
<Asog name="ASOG">
  <group id="1" value="2" />
  <group id="2" value="3" />
  <group id="3" value="2" />
  </Asog>
<GCmethod name="PPR78">
  <group id="1" value="2" />
  <group id="10" value="3" />
  <group id="11" value="2" />
  </GCmethod>
<Umr name="UMR">
  <group id="1" value="2" />
  <group id="2" value="3" />
  <group id="3" value="2" />
  </Umr>
<ModifiedUnifac name="Modified UNIFAC">
  <group id="1" value="2" />
  <group id="78" value="3" />
  <group id="79" value="2" />
  </ModifiedUnifac>
<CAS name="CAS number" value="822-50-4" />
<Smiles name="SMILES" value="C1[C@](C)([H])([C@]([H])(C)(CC1))" />
</compound>

