<compound>
<LibraryIndex name="Index" value="1855" />
<CompoundID name="Name" value="trichloroacetyl chloride" />
<StructureFormula name="Structure" value="CCl3COCl" />
<Family name="Family" value="71" />
<CriticalTemperature name="Critical temperature" units="K" value="604" />
<CriticalPressure name="Critical pressure" units="Pa" value="4320000" />
<CriticalVolume name="Critical volume" units="m3/kmol" value="0.3408" />
<CriticalCompressibility name="Critical compressibility factor" units="_" value="0.293" />
<NormalBoilingPointTemperature name="Normal boiling point" units="K" value="391.15" />
<NormalMeltingPointTemperature name="Melting point" units="K" value="216.2" />
<TriplePointTemperature name="Triple point temperature" units="K" value="216.2" />
<TriplePointPressure name="Triple point pressure" units="Pa" value="5.18177" />
<MolecularWeight name="Molecular weight" units="kg/kmol" value="181.8328" />
<LiquidVolumeAtNormalBoilingPoint name="Liquid molar volume at normal boiling point" units="m3/kmol" value="0.112961" />
<AcentricityFactor name="Acentric factor" units="_" value="0.282386" />
<RadiusOfGyration name="Radius of gyration" units="m" value="4.037E-10" />
<SolubilityParameter name="Solubility parameter" units="J0.5/m1.5" value="18010" />
<DipoleMoment name="Dipole moment" units="Coulomb.m" value="4.0E-30" />
<VanDerWaalsVolume name="Van der Waals volume" units="m3/kmol" value="0.06337" />
<VanDerWaalsArea name="Van der Waals area" units="m2/kmol" value="8.86E+08" />
<HeatOfFormation name="IG heat of formation" units="J/kmol" value="-2.398E+08" />
<GibbsEnergyOfFormation name="IG Gibbs energy of formation" units="J/kmol" value="-1.8E+08" />
<AbsEntropy name="IG absolute entropy" units="J/kmol/K" value="360000" />
<HeatOfFusionAtMeltingPoint name="Heat of fusion at melting point" units="J/kmol" value="9040000" />
<HeatOfCombustion name="Standard net heat of combustion LHV" units="J/kmol" value="-5.062E+08" />
<SolidDensity name="Solid density" units="kmol/m3">
  <eqno value="2" />
  <A value="12.247" />
  <B value="-0.0070805" />
  <Tmin units="K" value="86.48" />
  <Tmax units="K" value="216.2" />
  </SolidDensity>
<LiquidDensity name="Liquid density" units="kmol/m3">
  <eqno value="105" />
  <A value="0.76674" />
  <B value="0.26122" />
  <C value="604" />
  <D value="0.28678" />
  <Tmin units="K" value="216.2" />
  <Tmax units="K" value="604" />
  </LiquidDensity>
<VaporPressure name="Vapour pressure" units="Pa">
  <eqno value="101" />
  <A value="174.9617" />
  <B value="-10592.68" />
  <C value="-23.45621" />
  <D value="0.0000238342" />
  <E value="2" />
  <Tmin units="K" value="216.2" />
  <Tmax units="K" value="604" />
  </VaporPressure>
<HeatOfVaporization name="Heat of vaporization" units="J/kmol">
  <eqno value="106" />
  <A value="1.449329E+08" />
  <B value="7.45895" />
  <C value="-20.20511" />
  <D value="23.04844" />
  <E value="-9.793955" />
  <Tmin units="K" value="216.2" />
  <Tmax units="K" value="604" />
  </HeatOfVaporization>
<LiquidHeatCapacityCp name="Liquid heat capacity" units="J/kmol/K">
  <eqno value="16" />
  <A value="177260" />
  <B value="-1933.8" />
  <C value="48.92" />
  <D value="-0.20004" />
  <E value="0.00024097" />
  <Tmin units="K" value="300" />
  <Tmax units="K" value="600" />
  </LiquidHeatCapacityCp>
<IdealGasHeatCapacityCp name="Ideal gas heat capacity" units="J/kmol/K">
  <eqno value="16" />
  <A value="91870" />
  <B value="-696.64" />
  <C value="12.555" />
  <D value="-0.0015691" />
  <E value="6.1156E-07" />
  <Tmin units="K" value="216.2" />
  <Tmax units="K" value="1200.15" />
  </IdealGasHeatCapacityCp>
<SecondVirialCoefficient name="Second virial coefficient" units="m3/kmol">
  <eqno value="104" />
  <A value="0.25973" />
  <B value="-344.77" />
  <C value="-15.647" />
  <D value="-53770" />
  <E value="128480" />
  <Tmin units="K" value="295" />
  <Tmax units="K" value="1500" />
  </SecondVirialCoefficient>
<LiquidViscosity name="Liquid viscosity" units="Pa.s">
  <eqno value="101" />
  <A value="-12.095" />
  <B value="1867" />
  <C value="-0.00010079" />
  <D value="1.1286E-09" />
  <E value="2" />
  <Tmin units="K" value="216.2" />
  <Tmax units="K" value="391.15" />
  </LiquidViscosity>
<VaporViscosity name="Vapour viscosity" units="Pa.s">
  <eqno value="102" />
  <A value="0.0000001265" />
  <B value="0.7796" />
  <C value="98.46" />
  <D value="0.0024692" />
  <Tmin units="K" value="216.2" />
  <Tmax units="K" value="1000" />
  </VaporViscosity>
<LiquidThermalConductivity name="Liquid thermal conductivity" units="W/m/K">
  <eqno value="16" />
  <A value="0.043702" />
  <B value="-153.3" />
  <C value="-0.62199" />
  <D value="-0.0058162" />
  <E value="0.0000023649" />
  <Tmin units="K" value="216.2" />
  <Tmax units="K" value="391.15" />
  </LiquidThermalConductivity>
<VaporThermalConductivity name="Vapour thermal conductivity" units="W/m/K">
  <eqno value="102" />
  <A value="0.0006898" />
  <B value="0.5929" />
  <C value="623.5" />
  <D value="0.0039481" />
  <Tmin units="K" value="216.2" />
  <Tmax units="K" value="1000" />
  </VaporThermalConductivity>
<SurfaceTension name="Surface tension" units="N/m">
  <eqno value="16" />
  <A value="-0.0090309" />
  <B value="135.05" />
  <C value="-3.8737" />
  <D value="0.003953" />
  <E value="-0.0000095091" />
  <Tmin units="K" value="216.2" />
  <Tmax units="K" value="604" />
  </SurfaceTension>
<RPPHeatCapacityCp name="Ideal gas heat capacity (RPP)" units="J/kmol/K">
  <eqno value="4" />
  <A value="57646" />
  <B value="236.17" />
  <C value="-0.225" />
  <D value="0.000077151" />
  <Tmin units="K" value="216.2" />
  <Tmax units="K" value="1200.15" />
  </RPPHeatCapacityCp>
<AntoineVaporPressure name="Antoine" units="Pa">
  <eqno value="10" />
  <A value="20.34" />
  <B value="2694.7" />
  <C value="-85.515" />
  <Tmin units="K" value="379.48" />
  <Tmax units="K" value="542.77" />
  </AntoineVaporPressure>
<LiquidViscosityRPS name="Liquid viscosity (RPS)" units="Pa.s">
  <eqno value="13" />
  <A value="7.2231" />
  <B value="-0.06534" />
  <C value="0.000072292" />
  <Tmin units="K" value="216.2" />
  <Tmax units="K" value="391.15" />
  </LiquidViscosityRPS>
<COSTALDVolume name="COSTLD characteristic volume (V*)" units="m3/kmol" value="0.33807" />
<DiameterLJ name="Lennard Jones diameter" units="m" value="5.686395E-10" />
<EnergyLJ name="Lennard Jones energy" units="K" value="474.9781" />
<FullerVolume name="Fuller et al. diffusion volume" units="_" value="121.91" />
<Parachor name="Parachor" units="kg0.25.m3/s0.5/kmol" value="0.0493" />
<SpecificGravity name="Specific gravity" units="_" value="1.62992" />
<Charge name="Charge" units="_" value="0" />
<CostaldAcentricFactor name="SRK acentric factor" units="_" value="0.34435" />
<WilsonVolume name="Wilson volume" units="m3/kmol" value="0.112737" />
<UniquacR name="UNIQUAC r" units="_" value="4.177323" />
<UniquacQ name="UNIQUAC q" units="_" value="3.544" />
<ChaoSeaderAcentricFactor name="Chao-Seader acentric factor" units="_" value="0.347734" />
<ChaoSeaderSolubilityParameter name="Chao-Seader solubility parameter" units="J0.5/m1.5" value="18501.6" />
<ChaoSeaderLiquidVolume name="Chao-Seader liquid volume" units="m3/kmol" value="0.112737" />
<CAS name="CAS number" value="76-02-8" />
<Smiles name="SMILES" value="ClC(Cl)(Cl)C(=O)Cl" />
</compound>

