<compound>
<LibraryIndex name="Index" value="1454" />
<CompoundID name="Name" value="triethylene glycol dimethyl ether" />
<StructureFormula name="Structure" value="CH3OCH2CH2OCH2CH2OCH2CH2OCH3" />
<Family name="Family" value="62" />
<CriticalTemperature name="Critical temperature" units="K" value="651" />
<CriticalPressure name="Critical pressure" units="Pa" value="2310000" />
<CriticalVolume name="Critical volume" units="m3/kmol" value="0.548" />
<CriticalCompressibility name="Critical compressibility factor" units="_" value="0.234" />
<NormalBoilingPointTemperature name="Normal boiling point" units="K" value="489.15" />
<NormalMeltingPointTemperature name="Melting point" units="K" value="228.15" />
<TriplePointTemperature name="Triple point temperature" units="K" value="229.35" />
<TriplePointPressure name="Triple point pressure" units="Pa" value="0.000806665" />
<MolecularWeight name="Molecular weight" units="kg/kmol" value="178.226" />
<LiquidVolumeAtNormalBoilingPoint name="Liquid molar volume at normal boiling point" units="m3/kmol" value="0.181957" />
<AcentricityFactor name="Acentric factor" units="_" value="0.791532" />
<RadiusOfGyration name="Radius of gyration" units="m" value="5.414E-10" />
<SolubilityParameter name="Solubility parameter" units="J0.5/m1.5" value="19170" />
<DipoleMoment name="Dipole moment" units="Coulomb.m" value="7.47E-30" />
<VanDerWaalsVolume name="Van der Waals volume" units="m3/kmol" value="0.10352" />
<VanDerWaalsArea name="Van der Waals area" units="m2/kmol" value="1.474E+09" />
<HeatOfFormation name="IG heat of formation" units="J/kmol" value="-6.76E+08" />
<GibbsEnergyOfFormation name="IG Gibbs energy of formation" units="J/kmol" value="-3.75E+08" />
<AbsEntropy name="IG absolute entropy" units="J/kmol/K" value="622000" />
<HeatOfFusionAtMeltingPoint name="Heat of fusion at melting point" units="J/kmol" value="2.371E+07" />
<HeatOfCombustion name="Standard net heat of combustion LHV" units="J/kmol" value="-4.58E+09" />
<SolidDensity name="Solid density" units="kmol/m3">
  <eqno value="100" />
  <A value="7.6182" />
  <B value="-0.0041521" />
  <C value="0" />
  <D value="0" />
  <E value="0" />
  <Tmin units="K" value="91.74" />
  <Tmax units="K" value="229.35" />
  </SolidDensity>
<LiquidDensity name="Liquid density" units="kmol/m3">
  <eqno value="105" />
  <A value="0.4493" />
  <B value="0.24622" />
  <C value="651" />
  <D value="0.3918" />
  <Tmin units="K" value="229.35" />
  <Tmax units="K" value="651" />
  </LiquidDensity>
<VaporPressure name="Vapour pressure" units="Pa">
  <eqno value="101" />
  <A value="103.75" />
  <B value="-11633" />
  <C value="-11.067" />
  <D value="6.2208E-18" />
  <E value="6" />
  <Tmin units="K" value="229.35" />
  <Tmax units="K" value="651" />
  </VaporPressure>
<HeatOfVaporization name="Heat of vaporization" units="J/kmol">
  <eqno value="106" />
  <A value="8.85E+07" />
  <B value="0.3974" />
  <C value="0" />
  <D value="0" />
  <E value="0" />
  <Tmin units="K" value="229.35" />
  <Tmax units="K" value="651" />
  </HeatOfVaporization>
<SolidHeatCapacityCp name="Solid heat capacity" units="J/kmol/K">
  <eqno value="100" />
  <A value="33880" />
  <B value="1104.9" />
  <C value="-0.919" />
  <D value="0" />
  <E value="0" />
  <Tmin units="K" value="90" />
  <Tmax units="K" value="229.35" />
  </SolidHeatCapacityCp>
<LiquidHeatCapacityCp name="Liquid heat capacity" units="J/kmol/K">
  <eqno value="100" />
  <A value="472930" />
  <B value="-823.4" />
  <C value="1.5801" />
  <D value="0" />
  <E value="0" />
  <Tmin units="K" value="229.35" />
  <Tmax units="K" value="350" />
  </LiquidHeatCapacityCp>
<IdealGasHeatCapacityCp name="Ideal gas heat capacity" units="J/kmol/K">
  <eqno value="16" />
  <A value="128486.7" />
  <B value="-546.6468" />
  <C value="13.3981" />
  <D value="0" />
  <E value="0" />
  <Tmin units="K" value="255" />
  <Tmax units="K" value="1500" />
  </IdealGasHeatCapacityCp>
<SecondVirialCoefficient name="Second virial coefficient" units="m3/kmol">
  <eqno value="104" />
  <A value="0.44334" />
  <B value="-429.77" />
  <C value="-1.6133E+08" />
  <D value="-2.5191E+21" />
  <E value="6.1303E+23" />
  <Tmin units="K" value="325.5" />
  <Tmax units="K" value="3245.5" />
  </SecondVirialCoefficient>
<LiquidViscosity name="Liquid viscosity" units="Pa.s">
  <eqno value="101" />
  <A value="-8.9068" />
  <B value="1655.1" />
  <C value="-0.4269" />
  <D value="0" />
  <E value="0" />
  <Tmin units="K" value="229.35" />
  <Tmax units="K" value="489.15" />
  </LiquidViscosity>
<VaporViscosity name="Vapour viscosity" units="Pa.s">
  <eqno value="102" />
  <A value="7.452E-08" />
  <B value="0.8062" />
  <C value="87.972" />
  <D value="0" />
  <Tmin units="K" value="229.35" />
  <Tmax units="K" value="1000" />
  </VaporViscosity>
<LiquidThermalConductivity name="Liquid thermal conductivity" units="W/m/K">
  <eqno value="100" />
  <A value="0.29815" />
  <B value="-0.00043497" />
  <C value="0" />
  <D value="0" />
  <E value="0" />
  <Tmin units="K" value="229.35" />
  <Tmax units="K" value="489.15" />
  </LiquidThermalConductivity>
<VaporThermalConductivity name="Vapour thermal conductivity" units="W/m/K">
  <eqno value="102" />
  <A value="0.00017247" />
  <B value="0.92962" />
  <C value="734.4" />
  <D value="0" />
  <Tmin units="K" value="489.15" />
  <Tmax units="K" value="1000" />
  </VaporThermalConductivity>
<SurfaceTension name="Surface tension" units="N/m">
  <eqno value="106" />
  <A value="0.06986" />
  <B value="1.4684" />
  <C value="0" />
  <D value="0" />
  <E value="0" />
  <Tmin units="K" value="229.35" />
  <Tmax units="K" value="651" />
  </SurfaceTension>
<AntoineVaporPressure name="Antoine" units="Pa">
  <eqno value="10" />
  <A value="21.66327" />
  <B value="4104.283" />
  <C value="-83.67576" />
  <Tmin units="K" value="391.32" />
  <Tmax units="K" value="651" />
  </AntoineVaporPressure>
<Charge name="Charge" units="_" value="0" />
<CostaldAcentricFactor name="SRK acentric factor" units="_" value="0.791532" />
<WilsonVolume name="Wilson volume" units="m3/kmol" value="0.181957" />
<UniquacR name="UNIQUAC r" units="_" value="6.8242" />
<UniquacQ name="UNIQUAC q" units="_" value="5.896" />
<ChaoSeaderAcentricFactor name="Chao-Seader acentric factor" units="_" value="0.791532" />
<ChaoSeaderSolubilityParameter name="Chao-Seader solubility parameter" units="J0.5/m1.5" value="19170" />
<ChaoSeaderLiquidVolume name="Chao-Seader liquid volume" units="m3/kmol" value="0.181957" />
<UnifacVLE name="UNIFAC">
  <group id="2" value="4" />
  <group id="25" value="2" />
  <group id="26" value="2" />
  </UnifacVLE>
<UnifacLLE name="UNIFAC-LLE">
  <group id="2" value="4" />
  <group id="27" value="2" />
  <group id="28" value="2" />
  </UnifacLLE>
<Asog name="ASOG">
  <group id="2" value="4" />
  <group id="19" value="2" />
  <group id="19" value="2" />
  </Asog>
<GCmethod name="PPR78">
  <group id="2" value="4" />
  </GCmethod>
<Umr name="UMR">
  <group id="2" value="4" />
  <group id="25" value="2" />
  <group id="26" value="2" />
  </Umr>
<ModifiedUnifac name="Modified UNIFAC">
  <group id="2" value="4" />
  <group id="24" value="2" />
  <group id="25" value="2" />
  </ModifiedUnifac>
<CAS name="CAS number" value="112-49-2" />
<Smiles name="SMILES" value="COCCOCCOCCOC" />
</compound>

