<compound>
<LibraryIndex name="Index" value="1187" />
<CompoundID name="Name" value="trilenollenin" />
<StructureFormula name="Structure" value="C57H92O6" />
<Family name="Family" value="59" />
<CriticalTemperature name="Critical temperature" units="K" value="933.8" />
<CriticalPressure name="Critical pressure" units="Pa" value="205300" />
<CriticalVolume name="Critical volume" units="m3/kmol" value="5.62" />
<CriticalCompressibility name="Critical compressibility factor" units="_" value="0.148606" />
<NormalBoilingPointTemperature name="Normal boiling point" units="K" value="893.8" />
<NormalMeltingPointTemperature name="Melting point" units="K" value="248.15" />
<TriplePointTemperature name="Triple point temperature" units="K" value="248.15" />
<MolecularWeight name="Molecular weight" units="kg/kmol" value="873.3368" />
<LiquidVolumeAtNormalBoilingPoint name="Liquid molar volume at normal boiling point" units="m3/kmol" value="0.9352" />
<AcentricityFactor name="Acentric factor" units="_" value="2.08154" />
<HeatOfFormation name="IG heat of formation" units="J/kmol" value="-1.12195E+09" />
<GibbsEnergyOfFormation name="IG Gibbs energy of formation" units="J/kmol" value="5.023068E+07" />
<AbsEntropy name="IG absolute entropy" units="J/kmol/K" value="-4494765" />
<HeatOfCombustion name="Standard net heat of combustion LHV" units="J/kmol" value="-3.270907E+10" />
<LiquidDensity name="Liquid density" units="kmol/m3">
  <eqno value="105" />
  <A value="0.025146" />
  <B value="0.14132" />
  <C value="933.8" />
  <D value="0.2267" />
  <E value="0" />
  <Tmin units="K" value="248.15" />
  <Tmax units="K" value="933.8" />
  </LiquidDensity>
<VaporPressure name="Vapour pressure" units="Pa">
  <eqno value="101" />
  <A value="234.412" />
  <B value="-34629.2" />
  <C value="-27.2143" />
  <D value="1.55368E-18" />
  <E value="6" />
  <Tmin units="K" value="248.15" />
  <Tmax units="K" value="933.8" />
  </VaporPressure>
<IdealGasHeatCapacityCp name="Ideal gas heat capacity" units="J/kmol/K">
  <eqno value="16" />
  <A value="515654" />
  <B value="-500" />
  <C value="15.07315" />
  <D value="0" />
  <E value="0" />
  <Tmin units="K" value="255" />
  <Tmax units="K" value="1500" />
  </IdealGasHeatCapacityCp>
<LiquidViscosity name="Liquid viscosity" units="Pa.s">
  <eqno value="101" />
  <A value="-28.155" />
  <B value="3166.9" />
  <C value="2.3809" />
  <D value="0" />
  <E value="0" />
  <Tmin units="K" value="248.15" />
  <Tmax units="K" value="893.8" />
  </LiquidViscosity>
<SurfaceTension name="Surface tension" units="N/m">
  <eqno value="116" />
  <A value="0" />
  <B value="0" />
  <C value="0" />
  <D value="0.0290772" />
  <E value="0.0290772" />
  <Tmin units="K" value="248.15" />
  <Tmax units="K" value="933.8" />
  </SurfaceTension>
<AntoineVaporPressure name="Antoine" units="Pa">
  <eqno value="10" />
  <A value="29.32561" />
  <B value="14049.29" />
  <C value="-83.2993" />
  <Tmin units="K" value="248" />
  <Tmax units="K" value="933" />
  </AntoineVaporPressure>
<FullerVolume name="Fuller et al. diffusion volume" units="_" value="1082.28" />
<Parachor name="Parachor" units="kg0.25.m3/s0.5/kmol" value="0.406372" />
<SpecificGravity name="Specific gravity" units="_" value="0.946" />
<Charge name="Charge" units="_" value="0" />
<UniquacR name="UNIQUAC r" units="_" value="37.7873" />
<UniquacQ name="UNIQUAC q" units="_" value="30.495" />
<UnifacVLE name="UNIFAC">
  <group id="1" value="3" />
  <group id="2" value="29" />
  <group id="3" value="1" />
  <group id="6" value="9" />
  <group id="23" value="3" />
  </UnifacVLE>
<UnifacLLE name="UNIFAC-LLE">
  <group id="1" value="3" />
  <group id="2" value="29" />
  <group id="3" value="1" />
  <group id="6" value="9" />
  <group id="26" value="3" />
  </UnifacLLE>
<Umr name="UMR">
  <group id="1" value="3" />
  <group id="2" value="29" />
  <group id="3" value="1" />
  <group id="6" value="9" />
  <group id="23" value="3" />
  </Umr>
<ModifiedUnifac name="Modified UNIFAC">
  <group id="1" value="3" />
  <group id="2" value="29" />
  <group id="3" value="1" />
  <group id="6" value="9" />
  <group id="22" value="3" />
  </ModifiedUnifac>
<CAS name="CAS number" value="14465-68-0" />
<Smiles name="SMILES" value="CC/C=C\C/C=C\C/C=C\CCCCCCCC(=O)OCC(OC(=O)CCCCCCC/C=C\C/C=C\C/C=C\CC)COC(=O)CCCCCCC/C=C\C/C=C\C/C=C\CC" />
</compound>

