<compound>
<LibraryIndex name="Index" value="3337" />
<CompoundID name="Name" value="trimyristin" />
<StructureFormula name="Structure" value="C45H86O6" />
<Family name="Family" value="58" />
<CriticalTemperature name="Critical temperature" units="K" value="912.4" />
<CriticalPressure name="Critical pressure" units="Pa" value="288300" />
<CriticalVolume name="Critical volume" units="m3/kmol" value="4.2" />
<CriticalCompressibility name="Critical compressibility factor" units="_" value="0.159615" />
<NormalBoilingPointTemperature name="Normal boiling point" units="K" value="849.8" />
<NormalMeltingPointTemperature name="Melting point" units="K" value="330.15" />
<TriplePointTemperature name="Triple point temperature" units="K" value="330.15" />
<MolecularWeight name="Molecular weight" units="kg/kmol" value="723.1607" />
<LiquidVolumeAtNormalBoilingPoint name="Liquid molar volume at normal boiling point" units="m3/kmol" value="0.8155" />
<AcentricityFactor name="Acentric factor" units="_" value="1.79963" />
<HeatOfFormation name="IG heat of formation" units="J/kmol" value="-1.92925E+09" />
<GibbsEnergyOfFormation name="IG Gibbs energy of formation" units="J/kmol" value="-7.604316E+08" />
<AbsEntropy name="IG absolute entropy" units="J/kmol/K" value="2045969" />
<HeatOfCombustion name="Standard net heat of combustion LHV" units="J/kmol" value="-2.646229E+10" />
<LiquidDensity name="Liquid density" units="kmol/m3">
  <eqno value="105" />
  <A value="0.038004" />
  <B value="0.15973" />
  <C value="912.4" />
  <D value="0.24954" />
  <E value="0" />
  <Tmin units="K" value="330.15" />
  <Tmax units="K" value="912.4" />
  </LiquidDensity>
<VaporPressure name="Vapour pressure" units="Pa">
  <eqno value="101" />
  <A value="218.958" />
  <B value="-31223.3" />
  <C value="-25.3982" />
  <D value="1.647718E-18" />
  <E value="6" />
  <Tmin units="K" value="330.15" />
  <Tmax units="K" value="912.4" />
  </VaporPressure>
<IdealGasHeatCapacityCp name="Ideal gas heat capacity" units="J/kmol/K">
  <eqno value="16" />
  <A value="444646.8" />
  <B value="-500" />
  <C value="14.93272" />
  <D value="0" />
  <E value="0" />
  <Tmin units="K" value="255" />
  <Tmax units="K" value="1500" />
  </IdealGasHeatCapacityCp>
<LiquidViscosity name="Liquid viscosity" units="Pa.s">
  <eqno value="101" />
  <A value="-45.981" />
  <B value="4507.3" />
  <C value="4.854" />
  <D value="0" />
  <E value="0" />
  <Tmin units="K" value="330.15" />
  <Tmax units="K" value="849.8" />
  </LiquidViscosity>
<SurfaceTension name="Surface tension" units="N/m">
  <eqno value="116" />
  <A value="0" />
  <B value="0" />
  <C value="0" />
  <D value="0.0186014" />
  <E value="0.0186014" />
  <Tmin units="K" value="330.15" />
  <Tmax units="K" value="912.4" />
  </SurfaceTension>
<AntoineVaporPressure name="Antoine" units="Pa">
  <eqno value="10" />
  <A value="25.72382" />
  <B value="10263.85" />
  <C value="-120.427" />
  <Tmin units="K" value="330" />
  <Tmax units="K" value="912" />
  </AntoineVaporPressure>
<FullerVolume name="Fuller et al. diffusion volume" units="_" value="950.8199" />
<Parachor name="Parachor" units="kg0.25.m3/s0.5/kmol" value="0.3383" />
<SpecificGravity name="Specific gravity" units="_" value="0.8389" />
<Charge name="Charge" units="_" value="0" />
<UniquacR name="UNIQUAC r" units="_" value="31.7834" />
<UniquacQ name="UNIQUAC q" units="_" value="25.932" />
<UnifacVLE name="UNIFAC">
  <group id="1" value="3" />
  <group id="2" value="35" />
  <group id="3" value="1" />
  <group id="23" value="3" />
  </UnifacVLE>
<UnifacLLE name="UNIFAC-LLE">
  <group id="1" value="3" />
  <group id="2" value="35" />
  <group id="3" value="1" />
  <group id="26" value="3" />
  </UnifacLLE>
<Umr name="UMR">
  <group id="1" value="3" />
  <group id="2" value="35" />
  <group id="3" value="1" />
  <group id="23" value="3" />
  </Umr>
<ModifiedUnifac name="Modified UNIFAC">
  <group id="1" value="3" />
  <group id="2" value="35" />
  <group id="3" value="1" />
  <group id="22" value="3" />
  </ModifiedUnifac>
<CAS name="CAS number" value="555-45-3" />
<Smiles name="SMILES" value="CCCCCCCCCCCCCC(=O)OCC(COC(=O)CCCCCCCCCCCCC)OC(=O)CCCCCCCCCCCCC" />
</compound>

