<compound>
<LibraryIndex name="Index" value="3878" />
<CompoundID name="Name" value="triolein" />
<StructureFormula name="Structure" value="C57H104O6" />
<Family name="Family" value="59" />
<CriticalTemperature name="Critical temperature" units="K" value="935.3" />
<CriticalPressure name="Critical pressure" units="Pa" value="200200" />
<CriticalVolume name="Critical volume" units="m3/kmol" value="5.68" />
<CriticalCompressibility name="Critical compressibility factor" units="_" value="0.146227" />
<NormalBoilingPointTemperature name="Normal boiling point" units="K" value="896.8" />
<NormalMeltingPointTemperature name="Melting point" units="K" value="241.15" />
<TriplePointTemperature name="Triple point temperature" units="K" value="278.15" />
<MolecularWeight name="Molecular weight" units="kg/kmol" value="885.4321" />
<LiquidVolumeAtNormalBoilingPoint name="Liquid molar volume at normal boiling point" units="m3/kmol" value="0.9743" />
<AcentricityFactor name="Acentric factor" units="_" value="2.08832" />
<HeatOfFormation name="IG heat of formation" units="J/kmol" value="-1.82527E+09" />
<GibbsEnergyOfFormation name="IG Gibbs energy of formation" units="J/kmol" value="-4.216468E+08" />
<AbsEntropy name="IG absolute entropy" units="J/kmol/K" value="-5239731" />
<HeatOfCombustion name="Standard net heat of combustion LHV" units="J/kmol" value="-3.346544E+10" />
<LiquidDensity name="Liquid density" units="kmol/m3">
  <eqno value="105" />
  <A value="0.025744" />
  <B value="0.14623" />
  <C value="935.3" />
  <D value="0.22577" />
  <E value="0" />
  <Tmin units="K" value="278.15" />
  <Tmax units="K" value="935.3" />
  </LiquidDensity>
<VaporPressure name="Vapour pressure" units="Pa">
  <eqno value="101" />
  <A value="231.048" />
  <B value="-34387.2" />
  <C value="-26.765" />
  <D value="1.52559E-18" />
  <E value="6" />
  <Tmin units="K" value="278.15" />
  <Tmax units="K" value="935.3" />
  </VaporPressure>
<IdealGasHeatCapacityCp name="Ideal gas heat capacity" units="J/kmol/K">
  <eqno value="16" />
  <A value="540582.4" />
  <B value="-500" />
  <C value="15.13583" />
  <D value="0" />
  <E value="0" />
  <Tmin units="K" value="255" />
  <Tmax units="K" value="1500" />
  </IdealGasHeatCapacityCp>
<LiquidViscosity name="Liquid viscosity" units="Pa.s">
  <eqno value="101" />
  <A value="-9.6275" />
  <B value="2920" />
  <C value="-0.5332" />
  <D value="0" />
  <E value="0" />
  <Tmin units="K" value="278.15" />
  <Tmax units="K" value="896.8" />
  </LiquidViscosity>
<SurfaceTension name="Surface tension" units="N/m">
  <eqno value="116" />
  <A value="0" />
  <B value="0" />
  <C value="0" />
  <D value="0.0269146" />
  <E value="0.0269146" />
  <Tmin units="K" value="241.15" />
  <Tmax units="K" value="935.3" />
  </SurfaceTension>
<AntoineVaporPressure name="Antoine" units="Pa">
  <eqno value="10" />
  <A value="28.29924" />
  <B value="13181.68" />
  <C value="-95.22487" />
  <Tmin units="K" value="278" />
  <Tmax units="K" value="935" />
  </AntoineVaporPressure>
<FullerVolume name="Fuller et al. diffusion volume" units="_" value="1146.6" />
<Parachor name="Parachor" units="kg0.25.m3/s0.5/kmol" value="0.417896" />
<SpecificGravity name="Specific gravity" units="_" value="0.915" />
<Charge name="Charge" units="_" value="0" />
<UniquacR name="UNIQUAC r" units="_" value="39.1799" />
<UniquacQ name="UNIQUAC q" units="_" value="31.773" />
<UnifacVLE name="UNIFAC">
  <group id="1" value="3" />
  <group id="2" value="41" />
  <group id="3" value="1" />
  <group id="6" value="3" />
  <group id="23" value="3" />
  </UnifacVLE>
<UnifacLLE name="UNIFAC-LLE">
  <group id="1" value="3" />
  <group id="2" value="41" />
  <group id="3" value="1" />
  <group id="6" value="3" />
  <group id="26" value="3" />
  </UnifacLLE>
<Umr name="UMR">
  <group id="1" value="3" />
  <group id="2" value="41" />
  <group id="3" value="1" />
  <group id="6" value="3" />
  <group id="23" value="3" />
  </Umr>
<ModifiedUnifac name="Modified UNIFAC">
  <group id="1" value="3" />
  <group id="2" value="41" />
  <group id="3" value="1" />
  <group id="6" value="3" />
  <group id="22" value="3" />
  </ModifiedUnifac>
<CAS name="CAS number" value="122-32-7" />
<Smiles name="SMILES" value="CCCCCCCC/C=C\CCCCCCCC(=O)OCC(OC(=O)CCCCCCC/C=C\CCCCCCCC)COC(=O)CCCCCCC/C=C\CCCCCCCC" />
</compound>

