<compound>
<LibraryIndex name="Index" value="418" />
<CompoundID name="Name" value="vinylacetylene" />
<StructureFormula name="Structure" value="CH2CHCCH" />
<Family name="Family" value="15" />
<CriticalTemperature name="Critical temperature" units="K" value="454" />
<CriticalPressure name="Critical pressure" units="Pa" value="4860000" />
<CriticalVolume name="Critical volume" units="m3/kmol" value="0.205" />
<CriticalCompressibility name="Critical compressibility factor" units="_" value="0.264" />
<NormalBoilingPointTemperature name="Normal boiling point" units="K" value="278.25" />
<MolecularWeight name="Molecular weight" units="kg/kmol" value="52.07456" />
<LiquidVolumeAtNormalBoilingPoint name="Liquid molar volume at normal boiling point" units="m3/kmol" value="0.0769826" />
<AcentricityFactor name="Acentric factor" units="_" value="0.106852" />
<RadiusOfGyration name="Radius of gyration" units="m" value="2.552E-10" />
<SolubilityParameter name="Solubility parameter" units="J0.5/m1.5" value="16360" />
<DipoleMoment name="Dipole moment" units="Coulomb.m" value="1.3E-30" />
<VanDerWaalsVolume name="Van der Waals volume" units="m3/kmol" value="0.04001" />
<VanDerWaalsArea name="Van der Waals area" units="m2/kmol" value="5.66E+08" />
<HeatOfFormation name="IG heat of formation" units="J/kmol" value="3.046E+08" />
<GibbsEnergyOfFormation name="IG Gibbs energy of formation" units="J/kmol" value="3.06E+08" />
<AbsEntropy name="IG absolute entropy" units="J/kmol/K" value="279400" />
<HeatOfFusionAtMeltingPoint name="Heat of fusion at melting point" units="J/kmol" value="0" />
<MatthiasCopemanC1 name="Mathias-Copeman C1" units="_" value="0.62332" />
<HeatOfCombustion name="Standard net heat of combustion LHV" units="J/kmol" value="-2.362E+09" />
<SolidDensity name="Solid density" units="kmol/m3">
  <eqno value="2" />
  <A value="18.306" />
  <B value="-0.0011393" />
  <Tmin units="K" value="0" />
  <Tmax units="K" value="179.95" />
  </SolidDensity>
<LiquidDensity name="Liquid density" units="kmol/m3">
  <eqno value="105" />
  <A value="1.2594" />
  <B value="0.25931" />
  <C value="454" />
  <D value="0.29553" />
  <Tmin units="K" value="173.15" />
  <Tmax units="K" value="439.22" />
  </LiquidDensity>
<VaporPressure name="Vapour pressure" units="Pa">
  <eqno value="101" />
  <A value="79.0442" />
  <B value="-5001.865" />
  <C value="-8.984128" />
  <D value="0.0000129415" />
  <E value="2" />
  <Tmin units="K" value="173.15" />
  <Tmax units="K" value="454" />
  </VaporPressure>
<HeatOfVaporization name="Heat of vaporization" units="J/kmol">
  <eqno value="106" />
  <A value="3.313507E+07" />
  <B value="-0.0105563" />
  <C value="0.71867" />
  <D value="-0.291074" />
  <E value="0.0215152" />
  <Tmin units="K" value="173.15" />
  <Tmax units="K" value="439.22" />
  </HeatOfVaporization>
<SolidHeatCapacityCp name="Solid heat capacity" units="J/kmol/K">
  <eqno value="1" />
  <A value="103140" />
  <Tmin units="K" value="0" />
  <Tmax units="K" value="5" />
  </SolidHeatCapacityCp>
<LiquidHeatCapacityCp name="Liquid heat capacity" units="J/kmol/K">
  <eqno value="16" />
  <A value="68382" />
  <B value="-63.514" />
  <C value="9.912" />
  <D value="0.0031404" />
  <E value="-1.0307E-07" />
  <Tmin units="K" value="200" />
  <Tmax units="K" value="278.25" />
  </LiquidHeatCapacityCp>
<IdealGasHeatCapacityCp name="Ideal gas heat capacity" units="J/kmol/K">
  <eqno value="16" />
  <A value="49981" />
  <B value="-581.7" />
  <C value="12.052" />
  <D value="-0.00010825" />
  <E value="3.173E-08" />
  <Tmin units="K" value="200" />
  <Tmax units="K" value="1500" />
  </IdealGasHeatCapacityCp>
<SecondVirialCoefficient name="Second virial coefficient" units="m3/kmol">
  <eqno value="104" />
  <A value="0.12452" />
  <B value="-135.51" />
  <C value="-8.7131" />
  <D value="845.68" />
  <E value="-2148" />
  <Tmin units="K" value="227" />
  <Tmax units="K" value="1500" />
  </SecondVirialCoefficient>
<LiquidViscosity name="Liquid viscosity" units="Pa.s">
  <eqno value="101" />
  <A value="-2.2453" />
  <B value="320.68" />
  <C value="-1.2895" />
  <D value="-5.6512E-09" />
  <E value="2" />
  <Tmin units="K" value="173.15" />
  <Tmax units="K" value="400" />
  </LiquidViscosity>
<VaporViscosity name="Vapour viscosity" units="Pa.s">
  <eqno value="102" />
  <A value="6.7484E-07" />
  <B value="0.5304" />
  <C value="230.17" />
  <D value="-0.0024795" />
  <Tmin units="K" value="173.15" />
  <Tmax units="K" value="1000" />
  </VaporViscosity>
<LiquidThermalConductivity name="Liquid thermal conductivity" units="W/m/K">
  <eqno value="16" />
  <A value="-0.05887" />
  <B value="-27.718" />
  <C value="-0.92317" />
  <D value="-0.0023581" />
  <E value="1.5773E-07" />
  <Tmin units="K" value="173.15" />
  <Tmax units="K" value="278.25" />
  </LiquidThermalConductivity>
<VaporThermalConductivity name="Vapour thermal conductivity" units="W/m/K">
  <eqno value="102" />
  <A value="0.000054197" />
  <B value="1.0632" />
  <C value="-70.589" />
  <D value="90617" />
  <Tmin units="K" value="250" />
  <Tmax units="K" value="1000" />
  </VaporThermalConductivity>
<SurfaceTension name="Surface tension" units="N/m">
  <eqno value="16" />
  <A value="-0.12991" />
  <B value="-13.795" />
  <C value="-1.4402" />
  <D value="-0.0017832" />
  <E value="0.0000011318" />
  <Tmin units="K" value="173.15" />
  <Tmax units="K" value="439.22" />
  </SurfaceTension>
<RPPHeatCapacityCp name="Ideal gas heat capacity (RPP)" units="J/kmol/K">
  <eqno value="4" />
  <A value="6742.516" />
  <B value="283.8803" />
  <C value="-0.226384" />
  <D value="0.0000745714" />
  <Tmin units="K" value="200" />
  <Tmax units="K" value="1200" />
  </RPPHeatCapacityCp>
<AntoineVaporPressure name="Antoine" units="Pa">
  <eqno value="10" />
  <A value="20.717" />
  <B value="2173" />
  <C value="-42.271" />
  <Tmin units="K" value="173.15" />
  <Tmax units="K" value="454" />
  </AntoineVaporPressure>
<LiquidViscosityRPS name="Liquid viscosity (RPS)" units="Pa.s">
  <eqno value="13" />
  <A value="-3.5937" />
  <B value="-0.024995" />
  <C value="0.000028281" />
  <Tmin units="K" value="173.15" />
  <Tmax units="K" value="364" />
  </LiquidViscosityRPS>
<COSTALDVolume name="COSTLD characteristic volume (V*)" units="m3/kmol" value="0.19966" />
<DiameterLJ name="Lennard Jones diameter" units="m" value="5.439658E-10" />
<EnergyLJ name="Lennard Jones energy" units="K" value="245.3258" />
<RacketParameter name="Rackett parameter" units="_" value="0.264002" />
<FullerVolume name="Fuller et al. diffusion volume" units="_" value="72.84" />
<MatthiasCopemanC2 name="Mathias-Copeman C2" units="_" value="0.15143" />
<Parachor name="Parachor" units="kg0.25.m3/s0.5/kmol" value="0.028" />
<SpecificGravity name="Specific gravity" units="_" value="0.688432" />
<Charge name="Charge" units="_" value="0" />
<CostaldAcentricFactor name="SRK acentric factor" units="_" value="0.13346" />
<WilsonVolume name="Wilson volume" units="m3/kmol" value="0.0740148" />
<UniquacR name="UNIQUAC r" units="_" value="3.526" />
<UniquacQ name="UNIQUAC q" units="_" value="2.94" />
<MatthiasCopemanC3 name="Mathias-Copeman C3" units="_" value="0.68289" />
<ChaoSeaderAcentricFactor name="Chao-Seader acentric factor" units="_" value="0.11815" />
<ChaoSeaderSolubilityParameter name="Chao-Seader solubility parameter" units="J0.5/m1.5" value="17035" />
<ChaoSeaderLiquidVolume name="Chao-Seader liquid volume" units="m3/kmol" value="0.0740148" />
<UnifacVLE name="UNIFAC">
  <group id="5" value="1" />
  <group id="66" value="1" />
  </UnifacVLE>
<Asog name="ASOG">
  <group id="5" value="1" />
  <group id="8" value="1" />
  </Asog>
<Umr name="UMR">
  <group id="5" value="1" />
  <group id="66" value="1" />
  <group id="8" value="1" />
  </Umr>
<ModifiedUnifac name="Modified UNIFAC">
  <group id="5" value="1" />
  <group id="65" value="1" />
  </ModifiedUnifac>
<CAS name="CAS number" value="689-97-4" />
<Smiles name="SMILES" value="C=CC#C" />
</compound>

