<compound>
<LibraryIndex name="Index" value="1143" />
<CompoundID name="Name" value="1-pentadecanol" />
<StructureFormula name="Structure" value="CH3(CH2)14OH" />
<Family name="Family" value="27" />
<CriticalTemperature name="Critical temperature" units="K" value="757.3" />
<CriticalPressure name="Critical pressure" units="Pa" value="1569000" />
<CriticalVolume name="Critical volume" units="m3/kmol" value="1.01" />
<CriticalCompressibility name="Critical compressibility factor" units="_" value="0.251" />
<NormalBoilingPointTemperature name="Normal boiling point" units="K" value="583.9" />
<NormalMeltingPointTemperature name="Melting point" units="K" value="317.05" />
<TriplePointTemperature name="Triple point temperature" units="K" value="317.05" />
<TriplePointPressure name="Triple point pressure" units="Pa" value="0.068" />
<MolecularWeight name="Molecular weight" units="kg/kmol" value="228.414" />
<LiquidVolumeAtNormalBoilingPoint name="Liquid molar volume at normal boiling point" units="m3/kmol" value="0.2774" />
<AcentricityFactor name="Acentric factor" units="_" value="0.750675" />
<RadiusOfGyration name="Radius of gyration" units="m" value="7.086E-10" />
<SolubilityParameter name="Solubility parameter" units="J0.5/m1.5" value="18710" />
<DipoleMoment name="Dipole moment" units="Coulomb.m" value="5.5E-30" />
<VanDerWaalsVolume name="Van der Waals volume" units="m3/kmol" value="0.1649" />
<VanDerWaalsArea name="Van der Waals area" units="m2/kmol" value="2.248E+09" />
<HeatOfFormation name="IG heat of formation" units="J/kmol" value="-5.012E+08" />
<GibbsEnergyOfFormation name="IG Gibbs energy of formation" units="J/kmol" value="-5.807E+07" />
<AbsEntropy name="IG absolute entropy" units="J/kmol/K" value="793200" />
<HeatOfFusionAtMeltingPoint name="Heat of fusion at melting point" units="J/kmol" value="5.42E+07" />
<HeatOfCombustion name="Standard net heat of combustion LHV" units="J/kmol" value="-9.11E+09" />
<SolidDensity name="Solid density" units="kmol/m3">
  <eqno value="100" />
  <A value="4.747" />
  <B value="-0.0018255" />
  <C value="0" />
  <D value="0" />
  <E value="0" />
  <Tmin units="K" value="126.82" />
  <Tmax units="K" value="317.05" />
  </SolidDensity>
<LiquidDensity name="Liquid density" units="kmol/m3">
  <eqno value="105" />
  <A value="0.249" />
  <B value="0.237" />
  <C value="757.3" />
  <D value="0.286" />
  <Tmin units="K" value="317.05" />
  <Tmax units="K" value="757.3" />
  </LiquidDensity>
<VaporPressure name="Vapour pressure" units="Pa">
  <eqno value="101" />
  <A value="185.11" />
  <B value="-19068" />
  <C value="-22.167" />
  <D value="6.8889E-18" />
  <E value="6" />
  <Tmin units="K" value="317.05" />
  <Tmax units="K" value="757.3" />
  </VaporPressure>
<HeatOfVaporization name="Heat of vaporization" units="J/kmol">
  <eqno value="106" />
  <A value="1.006E+08" />
  <B value="-1.364" />
  <C value="4.476" />
  <D value="-2.818" />
  <E value="0" />
  <Tmin units="K" value="317.05" />
  <Tmax units="K" value="757.3" />
  </HeatOfVaporization>
<SolidHeatCapacityCp name="Solid heat capacity" units="J/kmol/K">
  <eqno value="102" />
  <A value="4408" />
  <B value="0.793" />
  <C value="0" />
  <D value="0" />
  <Tmin units="K" value="50" />
  <Tmax units="K" value="317.05" />
  </SolidHeatCapacityCp>
<LiquidHeatCapacityCp name="Liquid heat capacity" units="J/kmol/K">
  <eqno value="100" />
  <A value="-1796900" />
  <B value="15053" />
  <C value="-30.695" />
  <D value="0.021111" />
  <E value="0" />
  <Tmin units="K" value="317.05" />
  <Tmax units="K" value="583.9" />
  </LiquidHeatCapacityCp>
<IdealGasHeatCapacityCp name="Ideal gas heat capacity" units="J/kmol/K">
  <eqno value="107" />
  <A value="249400" />
  <B value="774000" />
  <C value="1564" />
  <D value="580500" />
  <E value="724.1" />
  <Tmin units="K" value="298.15" />
  <Tmax units="K" value="1500" />
  </IdealGasHeatCapacityCp>
<SecondVirialCoefficient name="Second virial coefficient" units="m3/kmol">
  <eqno value="104" />
  <A value="0.6872" />
  <B value="-479.57" />
  <C value="-4.9204E+08" />
  <D value="-9.7639E+21" />
  <E value="2.2217E+23" />
  <Tmin units="K" value="379.5" />
  <Tmax units="K" value="1500" />
  </SecondVirialCoefficient>
<LiquidViscosity name="Liquid viscosity" units="Pa.s">
  <eqno value="101" />
  <A value="-70.89" />
  <B value="6214.7" />
  <C value="8.1471" />
  <D value="0" />
  <E value="0" />
  <Tmin units="K" value="317.05" />
  <Tmax units="K" value="583.9" />
  </LiquidViscosity>
<VaporViscosity name="Vapour viscosity" units="Pa.s">
  <eqno value="102" />
  <A value="4.455E-08" />
  <B value="0.8409" />
  <C value="80.501" />
  <D value="0" />
  <Tmin units="K" value="317.05" />
  <Tmax units="K" value="1000" />
  </VaporViscosity>
<LiquidThermalConductivity name="Liquid thermal conductivity" units="W/m/K">
  <eqno value="100" />
  <A value="0.22933" />
  <B value="-0.00022271" />
  <C value="0" />
  <D value="0" />
  <E value="0" />
  <Tmin units="K" value="317.05" />
  <Tmax units="K" value="583.9" />
  </LiquidThermalConductivity>
<VaporThermalConductivity name="Vapour thermal conductivity" units="W/m/K">
  <eqno value="102" />
  <A value="-2.707" />
  <B value="-0.028024" />
  <C value="-1926.6" />
  <D value="-2.7699E+07" />
  <Tmin units="K" value="583.9" />
  <Tmax units="K" value="1000" />
  </VaporThermalConductivity>
<SurfaceTension name="Surface tension" units="N/m">
  <eqno value="106" />
  <A value="0.069" />
  <B value="1.793" />
  <C value="-0.534" />
  <D value="0" />
  <E value="0" />
  <Tmin units="K" value="317.05" />
  <Tmax units="K" value="757.3" />
  </SurfaceTension>
<AntoineVaporPressure name="Antoine" units="Pa">
  <eqno value="10" />
  <A value="21.21" />
  <B value="4300" />
  <C value="-140" />
  <Tmin units="K" value="317" />
  <Tmax units="K" value="757" />
  </AntoineVaporPressure>
<FullerVolume name="Fuller et al. diffusion volume" units="_" value="318.53" />
<Parachor name="Parachor" units="kg0.25.m3/s0.5/kmol" value="0.114752" />
<SpecificGravity name="Specific gravity" units="_" value="0.834" />
<Charge name="Charge" units="_" value="0" />
<CostaldAcentricFactor name="SRK acentric factor" units="_" value="0.750675" />
<WilsonVolume name="Wilson volume" units="m3/kmol" value="0.2774" />
<UniquacR name="UNIQUAC r" units="_" value="11.3427" />
<UniquacQ name="UNIQUAC q" units="_" value="9.608" />
<ChaoSeaderAcentricFactor name="Chao-Seader acentric factor" units="_" value="0.750675" />
<ChaoSeaderSolubilityParameter name="Chao-Seader solubility parameter" units="J0.5/m1.5" value="18710" />
<ChaoSeaderLiquidVolume name="Chao-Seader liquid volume" units="m3/kmol" value="0.2774" />
<UnifacVLE name="UNIFAC">
  <group id="1" value="1" />
  <group id="2" value="14" />
  <group id="15" value="1" />
  </UnifacVLE>
<UnifacLLE name="UNIFAC-LLE">
  <group id="1" value="1" />
  <group id="2" value="14" />
  <group id="14" value="1" />
  </UnifacLLE>
<Asog name="ASOG">
  <group id="1" value="1" />
  <group id="2" value="14" />
  <group id="15" value="1" />
  </Asog>
<Umr name="UMR">
  <group id="1" value="1" />
  <group id="2" value="14" />
  <group id="15" value="1" />
  </Umr>
<ModifiedUnifac name="Modified UNIFAC">
  <group id="1" value="1" />
  <group id="2" value="14" />
  <group id="14" value="1" />
  </ModifiedUnifac>
<CAS name="CAS number" value="629-76-5" />
<Smiles name="SMILES" value="CCCCCCCCCCCCCCCO" />
</compound>

