<compound>
<LibraryIndex name="Index" value="212" />
<CompoundID name="Name" value="2-methyl-1-butene" />
<StructureFormula name="Structure" value="CH2C(CH3)CH2CH3" />
<Family name="Family" value="11" />
<CriticalTemperature name="Critical temperature" units="K" value="465" />
<CriticalPressure name="Critical pressure" units="Pa" value="3447000" />
<CriticalVolume name="Critical volume" units="m3/kmol" value="0.292" />
<CriticalCompressibility name="Critical compressibility factor" units="_" value="0.26" />
<NormalBoilingPointTemperature name="Normal boiling point" units="K" value="304.305" />
<NormalMeltingPointTemperature name="Melting point" units="K" value="135.578" />
<TriplePointTemperature name="Triple point temperature" units="K" value="135.578" />
<TriplePointPressure name="Triple point pressure" units="Pa" value="0.0205382" />
<MolecularWeight name="Molecular weight" units="kg/kmol" value="70.1329" />
<LiquidVolumeAtNormalBoilingPoint name="Liquid molar volume at normal boiling point" units="m3/kmol" value="0.10872" />
<AcentricityFactor name="Acentric factor" units="_" value="0.234056" />
<RadiusOfGyration name="Radius of gyration" units="m" value="3.287E-10" />
<SolubilityParameter name="Solubility parameter" units="J0.5/m1.5" value="14700" />
<DipoleMoment name="Dipole moment" units="Coulomb.m" value="1.7E-30" />
<VanDerWaalsVolume name="Van der Waals volume" units="m3/kmol" value="0.05452" />
<VanDerWaalsArea name="Van der Waals area" units="m2/kmol" value="8.06E+08" />
<HeatOfFormation name="IG heat of formation" units="J/kmol" value="-3.53E+07" />
<GibbsEnergyOfFormation name="IG Gibbs energy of formation" units="J/kmol" value="6.668E+07" />
<AbsEntropy name="IG absolute entropy" units="J/kmol/K" value="339500" />
<HeatOfFusionAtMeltingPoint name="Heat of fusion at melting point" units="J/kmol" value="7910700" />
<MatthiasCopemanC1 name="Mathias-Copeman C1" units="_" value="0.83569" />
<HeatOfCombustion name="Standard net heat of combustion LHV" units="J/kmol" value="-3.1159E+09" />
<SolidDensity name="Solid density" units="kmol/m3">
  <eqno value="2" />
  <A value="14.346" />
  <B value="-0.01138" />
  <Tmin units="K" value="54.23" />
  <Tmax units="K" value="135.58" />
  </SolidDensity>
<LiquidDensity name="Liquid density" units="kmol/m3">
  <eqno value="105" />
  <A value="0.91622" />
  <B value="0.26752" />
  <C value="465" />
  <D value="0.28165" />
  <Tmin units="K" value="135.58" />
  <Tmax units="K" value="465" />
  </LiquidDensity>
<VaporPressure name="Vapour pressure" units="Pa">
  <eqno value="101" />
  <A value="77.29304" />
  <B value="-5304.146" />
  <C value="-8.607604" />
  <D value="9.513458E-06" />
  <E value="2" />
  <Tmin units="K" value="135.58" />
  <Tmax units="K" value="465" />
  </VaporPressure>
<HeatOfVaporization name="Heat of vaporization" units="J/kmol">
  <eqno value="106" />
  <A value="4.6374E+07" />
  <B value="1.4214" />
  <C value="-2.5789" />
  <D value="2.5516" />
  <E value="-0.95454" />
  <Tmin units="K" value="135.58" />
  <Tmax units="K" value="465" />
  </HeatOfVaporization>
<SolidHeatCapacityCp name="Solid heat capacity" units="J/kmol/K">
  <eqno value="100" />
  <A value="-17830" />
  <B value="1684.7" />
  <C value="-14.234" />
  <D value="0.073506" />
  <E value="-0.00014133" />
  <Tmin units="K" value="20" />
  <Tmax units="K" value="135.6" />
  </SolidHeatCapacityCp>
<LiquidHeatCapacityCp name="Liquid heat capacity" units="J/kmol/K">
  <eqno value="16" />
  <A value="121560" />
  <B value="527.31" />
  <C value="1.2291" />
  <D value="0.036295" />
  <E value="-0.000037525" />
  <Tmin units="K" value="135.58" />
  <Tmax units="K" value="304.31" />
  </LiquidHeatCapacityCp>
<IdealGasHeatCapacityCp name="Ideal gas heat capacity" units="J/kmol/K">
  <eqno value="16" />
  <A value="81218" />
  <B value="-803.24" />
  <C value="13.077" />
  <D value="-0.00034159" />
  <E value="9.7536E-08" />
  <Tmin units="K" value="200" />
  <Tmax units="K" value="1500" />
  </IdealGasHeatCapacityCp>
<SecondVirialCoefficient name="Second virial coefficient" units="m3/kmol">
  <eqno value="104" />
  <A value="0.16678" />
  <B value="-164.7" />
  <C value="-17.388" />
  <D value="-73.693" />
  <E value="-374.88" />
  <Tmin units="K" value="232.5" />
  <Tmax units="K" value="1860" />
  </SecondVirialCoefficient>
<LiquidViscosity name="Liquid viscosity" units="Pa.s">
  <eqno value="101" />
  <A value="-10.065" />
  <B value="690.04" />
  <C value="-0.13044" />
  <D value="0.0000004745" />
  <E value="2" />
  <Tmin units="K" value="135.58" />
  <Tmax units="K" value="373" />
  </LiquidViscosity>
<VaporViscosity name="Vapour viscosity" units="Pa.s">
  <eqno value="102" />
  <A value="5.0873E-07" />
  <B value="0.55006" />
  <C value="197.77" />
  <D value="-68.455" />
  <Tmin units="K" value="135.58" />
  <Tmax units="K" value="1000" />
  </VaporViscosity>
<LiquidThermalConductivity name="Liquid thermal conductivity" units="W/m/K">
  <eqno value="16" />
  <A value="-0.024046" />
  <B value="2.4654" />
  <C value="-1.5931" />
  <D value="-0.00074325" />
  <E value="-0.0000024745" />
  <Tmin units="K" value="135.58" />
  <Tmax units="K" value="304.3" />
  </LiquidThermalConductivity>
<VaporThermalConductivity name="Vapour thermal conductivity" units="W/m/K">
  <eqno value="102" />
  <A value="0.00018088" />
  <B value="0.94101" />
  <C value="77.857" />
  <D value="153680" />
  <Tmin units="K" value="135.578" />
  <Tmax units="K" value="1000" />
  </VaporThermalConductivity>
<SurfaceTension name="Surface tension" units="N/m">
  <eqno value="16" />
  <A value="-0.0087828" />
  <B value="42.635" />
  <C value="-3.4174" />
  <D value="0.001427" />
  <E value="-0.0000096911" />
  <Tmin units="K" value="135.58" />
  <Tmax units="K" value="465" />
  </SurfaceTension>
<RPPHeatCapacityCp name="Ideal gas heat capacity (RPP)" units="J/kmol/K">
  <eqno value="4" />
  <A value="-289.0224" />
  <B value="434.7176" />
  <C value="-0.232806" />
  <D value="0.0000469361" />
  <Tmin units="K" value="200" />
  <Tmax units="K" value="1200" />
  </RPPHeatCapacityCp>
<AntoineVaporPressure name="Antoine" units="Pa">
  <eqno value="10" />
  <A value="20.951" />
  <B value="2552.6" />
  <C value="-33.481" />
  <Tmin units="K" value="280.07" />
  <Tmax units="K" value="412.99" />
  </AntoineVaporPressure>
<LiquidViscosityRPS name="Liquid viscosity (RPS)" units="Pa.s">
  <eqno value="13" />
  <A value="-0.24348" />
  <B value="-0.050824" />
  <C value="0.000078622" />
  <Tmin units="K" value="135.58" />
  <Tmax units="K" value="304.3" />
  </LiquidViscosityRPS>
<COSTALDVolume name="COSTLD characteristic volume (V*)" units="m3/kmol" value="0.2887" />
<DiameterLJ name="Lennard Jones diameter" units="m" value="6.233585E-10" />
<EnergyLJ name="Lennard Jones energy" units="K" value="237.8319" />
<RacketParameter name="Rackett parameter" units="_" value="0.270022" />
<FullerVolume name="Fuller et al. diffusion volume" units="_" value="102.6" />
<MatthiasCopemanC2 name="Mathias-Copeman C2" units="_" value="0.06763" />
<Parachor name="Parachor" units="kg0.25.m3/s0.5/kmol" value="0.0387" />
<SpecificGravity name="Specific gravity" units="_" value="0.65438" />
<Charge name="Charge" units="_" value="0" />
<CostaldAcentricFactor name="SRK acentric factor" units="_" value="0.23544" />
<WilsonVolume name="Wilson volume" units="m3/kmol" value="0.10868" />
<UniquacR name="UNIQUAC r" units="_" value="3.5939" />
<UniquacQ name="UNIQUAC q" units="_" value="3.224" />
<ApiSrkS2 name="API-SRK s2" units="_" value="-0.00351" />
<MatthiasCopemanC3 name="Mathias-Copeman C3" units="_" value="-0.08406" />
<ChaoSeaderAcentricFactor name="Chao-Seader acentric factor" units="_" value="0.228663" />
<ChaoSeaderSolubilityParameter name="Chao-Seader solubility parameter" units="J0.5/m1.5" value="14695.4" />
<ChaoSeaderLiquidVolume name="Chao-Seader liquid volume" units="m3/kmol" value="0.10868" />
<UnifacVLE name="UNIFAC">
  <group id="1" value="2" />
  <group id="2" value="1" />
  <group id="7" value="1" />
  </UnifacVLE>
<UnifacLLE name="UNIFAC-LLE">
  <group id="1" value="2" />
  <group id="2" value="1" />
  <group id="8" value="1" />
  </UnifacLLE>
<Asog name="ASOG">
  <group id="1" value="2" />
  <group id="2" value="1" />
  <group id="7" value="1" />
  </Asog>
<GCmethod name="PPR78">
  <group id="1" value="2" />
  <group id="2" value="2" />
  <group id="19" value="1" />
  </GCmethod>
<Umr name="UMR">
  <group id="1" value="2" />
  <group id="2" value="1" />
  <group id="7" value="1" />
  </Umr>
<ModifiedUnifac name="Modified UNIFAC">
  <group id="1" value="2" />
  <group id="2" value="1" />
  <group id="7" value="1" />
  </ModifiedUnifac>
<CAS name="CAS number" value="563-46-2" />
<Smiles name="SMILES" value="C=C(C)CC" />
</compound>

