<compound>
<LibraryIndex name="Index" value="36" />
<CompoundID name="Name" value="3,3-dimethylhexane" />
<StructureFormula name="Structure" value="CH3CH2C(CH3)2CH2CH2CH3" />
<Family name="Family" value="4" />
<CriticalTemperature name="Critical temperature" units="K" value="562" />
<CriticalPressure name="Critical pressure" units="Pa" value="2650000" />
<CriticalVolume name="Critical volume" units="m3/kmol" value="0.4428" />
<CriticalCompressibility name="Critical compressibility factor" units="_" value="0.251" />
<NormalBoilingPointTemperature name="Normal boiling point" units="K" value="385.12" />
<NormalMeltingPointTemperature name="Melting point" units="K" value="147.05" />
<TriplePointTemperature name="Triple point temperature" units="K" value="147.05" />
<TriplePointPressure name="Triple point pressure" units="Pa" value="0.0000473645" />
<MolecularWeight name="Molecular weight" units="kg/kmol" value="114.2285" />
<LiquidVolumeAtNormalBoilingPoint name="Liquid molar volume at normal boiling point" units="m3/kmol" value="0.16181" />
<AcentricityFactor name="Acentric factor" units="_" value="0.32" />
<RadiusOfGyration name="Radius of gyration" units="m" value="3.717E-10" />
<SolubilityParameter name="Solubility parameter" units="J0.5/m1.5" value="14880" />
<DipoleMoment name="Dipole moment" units="Coulomb.m" value="0" />
<VanDerWaalsVolume name="Van der Waals volume" units="m3/kmol" value="0.0886999" />
<VanDerWaalsArea name="Van der Waals area" units="m2/kmol" value="1.253E+09" />
<HeatOfFormation name="IG heat of formation" units="J/kmol" value="-2.2012E+08" />
<GibbsEnergyOfFormation name="IG Gibbs energy of formation" units="J/kmol" value="1.32633E+07" />
<AbsEntropy name="IG absolute entropy" units="J/kmol/K" value="438230" />
<HeatOfFusionAtMeltingPoint name="Heat of fusion at melting point" units="J/kmol" value="7112800" />
<MatthiasCopemanC1 name="Mathias-Copeman C1" units="_" value="0.9621" />
<HeatOfCombustion name="Standard net heat of combustion LHV" units="J/kmol" value="-5.06682E+09" />
<SolidDensity name="Solid density" units="kmol/m3">
  <eqno value="2" />
  <A value="8.9019" />
  <B value="-0.006722" />
  <C value="0" />
  <D value="0" />
  <E value="0" />
  <Tmin units="K" value="58.82" />
  <Tmax units="K" value="147.05" />
  </SolidDensity>
<LiquidDensity name="Liquid density" units="kmol/m3">
  <eqno value="105" />
  <A value="0.45959" />
  <B value="0.24567" />
  <C value="562" />
  <D value="0.21162" />
  <Tmin units="K" value="147.05" />
  <Tmax units="K" value="561.95" />
  </LiquidDensity>
<VaporPressure name="Vapour pressure" units="Pa">
  <eqno value="101" />
  <A value="109.95" />
  <B value="-8119.3" />
  <C value="-13.232" />
  <D value="0.0000097251" />
  <E value="2" />
  <Tmin units="K" value="147.05" />
  <Tmax units="K" value="562" />
  </VaporPressure>
<HeatOfVaporization name="Heat of vaporization" units="J/kmol">
  <eqno value="106" />
  <A value="5.8755E+07" />
  <B value="0.81257" />
  <C value="-0.27217" />
  <D value="-0.51422" />
  <E value="0.40803" />
  <Tmin units="K" value="147.05" />
  <Tmax units="K" value="540.16" />
  </HeatOfVaporization>
<SolidHeatCapacityCp name="Solid heat capacity" units="J/kmol/K">
  <eqno value="1" />
  <A value="223200" />
  <Tmin units="K" value="0" />
  <Tmax units="K" value="562" />
  </SolidHeatCapacityCp>
<LiquidHeatCapacityCp name="Liquid heat capacity" units="J/kmol/K">
  <eqno value="16" />
  <A value="130950" />
  <B value="-54.41" />
  <C value="9.7102" />
  <D value="0.0098373" />
  <E value="-0.0000089507" />
  <Tmin units="K" value="226.41" />
  <Tmax units="K" value="385.12" />
  </LiquidHeatCapacityCp>
<IdealGasHeatCapacityCp name="Ideal gas heat capacity" units="J/kmol/K">
  <eqno value="16" />
  <A value="73854" />
  <B value="-426.62" />
  <C value="12.974" />
  <D value="0.00044554" />
  <E value="-1.4645E-07" />
  <Tmin units="K" value="200" />
  <Tmax units="K" value="1500" />
  </IdealGasHeatCapacityCp>
<SecondVirialCoefficient name="Second virial coefficient" units="m3/kmol">
  <eqno value="104" />
  <A value="0.26895" />
  <B value="-323.28" />
  <C value="-54.431" />
  <D value="-10397" />
  <E value="17361" />
  <Tmin units="K" value="281" />
  <Tmax units="K" value="2000" />
  </SecondVirialCoefficient>
<LiquidViscosity name="Liquid viscosity" units="Pa.s">
  <eqno value="101" />
  <A value="-7.0202" />
  <B value="924.42" />
  <C value="-0.69061" />
  <D value="0.0000021821" />
  <E value="2" />
  <Tmin units="K" value="180" />
  <Tmax units="K" value="400" />
  </LiquidViscosity>
<VaporViscosity name="Vapour viscosity" units="Pa.s">
  <eqno value="102" />
  <A value="1.9286E-07" />
  <B value="0.65784" />
  <C value="75.166" />
  <D value="8686.9" />
  <Tmin units="K" value="385.12" />
  <Tmax units="K" value="1000" />
  </VaporViscosity>
<LiquidThermalConductivity name="Liquid thermal conductivity" units="W/m/K">
  <eqno value="16" />
  <A value="-0.074777" />
  <B value="3.6654" />
  <C value="-1.4953" />
  <D value="-0.00045709" />
  <E value="-0.000001113" />
  <Tmin units="K" value="147.05" />
  <Tmax units="K" value="385.12" />
  </LiquidThermalConductivity>
<VaporThermalConductivity name="Vapour thermal conductivity" units="W/m/K">
  <eqno value="102" />
  <A value="0.000028072" />
  <B value="1.1786" />
  <C value="-168.43" />
  <D value="151580" />
  <Tmin units="K" value="147.05" />
  <Tmax units="K" value="1000" />
  </VaporThermalConductivity>
<SurfaceTension name="Surface tension" units="N/m">
  <eqno value="16" />
  <A value="-0.013471" />
  <B value="13.363" />
  <C value="-2.98" />
  <D value="-0.00049832" />
  <E value="-0.0000034578" />
  <Tmin units="K" value="147.05" />
  <Tmax units="K" value="540.16" />
  </SurfaceTension>
<RPPHeatCapacityCp name="Ideal gas heat capacity (RPP)" units="J/kmol/K">
  <eqno value="100" />
  <A value="-17402" />
  <B value="785.55" />
  <C value="-0.23347" />
  <D value="-0.00023372" />
  <E value="1.5099E-07" />
  <Tmin units="K" value="200" />
  <Tmax units="K" value="1000" />
  </RPPHeatCapacityCp>
<RelativeStaticPermittivity name="Relative static permittivity" units="_">
  <eqno value="120" />
  <A value="-1.796538" />
  <B value="-1200" />
  <C value="-7.2" />
  <Tmin units="K" value="274.15" />
  <Tmax units="K" value="444.15" />
  </RelativeStaticPermittivity>
<AntoineVaporPressure name="Antoine" units="Pa">
  <eqno value="10" />
  <A value="20.871" />
  <B value="3143.9" />
  <C value="-48.698" />
  <Tmin units="K" value="343.14" />
  <Tmax units="K" value="503.77" />
  </AntoineVaporPressure>
<LiquidViscosityRPS name="Liquid viscosity (RPS)" units="Pa.s">
  <eqno value="12" />
  <A value="-3.4713" />
  <B value="-0.013535" />
  <Tmin units="K" value="180" />
  <Tmax units="K" value="385.12" />
  </LiquidViscosityRPS>
<COSTALDVolume name="COSTLD characteristic volume (V*)" units="m3/kmol" value="0.486848" />
<DiameterLJ name="Lennard Jones diameter" units="m" value="7.470891E-10" />
<EnergyLJ name="Lennard Jones energy" units="K" value="253.2065" />
<RacketParameter name="Rackett parameter" units="_" value="0.266364" />
<FullerVolume name="Fuller et al. diffusion volume" units="_" value="168.78" />
<MatthiasCopemanC2 name="Mathias-Copeman C2" units="_" value="0" />
<Parachor name="Parachor" units="kg0.25.m3/s0.5/kmol" value="0.0599069" />
<SpecificGravity name="Specific gravity" units="_" value="0.713866" />
<Charge name="Charge" units="_" value="0" />
<CostaldAcentricFactor name="SRK acentric factor" units="_" value="0.32" />
<WilsonVolume name="Wilson volume" units="m3/kmol" value="0.16181" />
<UniquacR name="UNIQUAC r" units="_" value="5.8471" />
<UniquacQ name="UNIQUAC q" units="_" value="5.012" />
<ApiSrkS2 name="API-SRK s2" units="_" value="-0.001728" />
<MatthiasCopemanC3 name="Mathias-Copeman C3" units="_" value="0" />
<ChaoSeaderAcentricFactor name="Chao-Seader acentric factor" units="_" value="0.32" />
<ChaoSeaderSolubilityParameter name="Chao-Seader solubility parameter" units="J0.5/m1.5" value="14880" />
<ChaoSeaderLiquidVolume name="Chao-Seader liquid volume" units="m3/kmol" value="0.16181" />
<UnifacVLE name="UNIFAC">
  <group id="1" value="4" />
  <group id="2" value="3" />
  <group id="4" value="1" />
  </UnifacVLE>
<UnifacLLE name="UNIFAC-LLE">
  <group id="1" value="4" />
  <group id="2" value="3" />
  <group id="4" value="1" />
  </UnifacLLE>
<Asog name="ASOG">
  <group id="1" value="4" />
  <group id="2" value="3" />
  <group id="4" value="1" />
  </Asog>
<GCmethod name="PPR78">
  <group id="1" value="4" />
  <group id="2" value="3" />
  <group id="4" value="1" />
  </GCmethod>
<Umr name="UMR">
  <group id="1" value="4" />
  <group id="2" value="3" />
  <group id="4" value="1" />
  </Umr>
<ModifiedUnifac name="Modified UNIFAC">
  <group id="1" value="4" />
  <group id="2" value="3" />
  <group id="4" value="1" />
  </ModifiedUnifac>
<CAS name="CAS number" value="563-16-6" />
<Smiles name="SMILES" value="CCC(C)(C)CCC" />
</compound>

