<compound>
<LibraryIndex name="Index" value="20" />
<CompoundID name="Name" value="3-ethylpentane" />
<StructureFormula name="Structure" value="CH3CH2CH(CH2CH3)CH2CH3" />
<Family name="Family" value="4" />
<CriticalTemperature name="Critical temperature" units="K" value="540.5" />
<CriticalPressure name="Critical pressure" units="Pa" value="2890000" />
<CriticalVolume name="Critical volume" units="m3/kmol" value="0.4158" />
<CriticalCompressibility name="Critical compressibility factor" units="_" value="0.267" />
<NormalBoilingPointTemperature name="Normal boiling point" units="K" value="366.63" />
<NormalMeltingPointTemperature name="Melting point" units="K" value="154.55" />
<TriplePointTemperature name="Triple point temperature" units="K" value="154.55" />
<TriplePointPressure name="Triple point pressure" units="Pa" value="0.00170947" />
<MolecularWeight name="Molecular weight" units="kg/kmol" value="100.202" />
<LiquidVolumeAtNormalBoilingPoint name="Liquid molar volume at normal boiling point" units="m3/kmol" value="0.1444" />
<AcentricityFactor name="Acentric factor" units="_" value="0.311" />
<RadiusOfGyration name="Radius of gyration" units="m" value="3.943E-10" />
<SolubilityParameter name="Solubility parameter" units="J0.5/m1.5" value="15040" />
<DipoleMoment name="Dipole moment" units="Coulomb.m" value="0" />
<VanDerWaalsVolume name="Van der Waals volume" units="m3/kmol" value="0.0784799" />
<VanDerWaalsArea name="Van der Waals area" units="m2/kmol" value="1.098E+09" />
<HeatOfFormation name="IG heat of formation" units="J/kmol" value="-1.89661E+08" />
<GibbsEnergyOfFormation name="IG Gibbs energy of formation" units="J/kmol" value="1.09202E+07" />
<AbsEntropy name="IG absolute entropy" units="J/kmol/K" value="411540" />
<HeatOfFusionAtMeltingPoint name="Heat of fusion at melting point" units="J/kmol" value="9547890" />
<MatthiasCopemanC1 name="Mathias-Copeman C1" units="_" value="0.99001" />
<HeatOfCombustion name="Standard net heat of combustion LHV" units="J/kmol" value="-4.4642E+09" />
<SolidDensity name="Solid density" units="kmol/m3">
  <eqno value="2" />
  <A value="10.258" />
  <B value="-0.0073712" />
  <C value="0" />
  <D value="0" />
  <E value="0" />
  <Tmin units="K" value="61.82" />
  <Tmax units="K" value="154.55" />
  </SolidDensity>
<LiquidDensity name="Liquid density" units="kmol/m3">
  <eqno value="105" />
  <A value="0.56112" />
  <B value="0.24813" />
  <C value="540.61" />
  <D value="0.27074" />
  <Tmin units="K" value="154.55" />
  <Tmax units="K" value="540.6" />
  </LiquidDensity>
<VaporPressure name="Vapour pressure" units="Pa">
  <eqno value="101" />
  <A value="89.99315" />
  <B value="-6915.896" />
  <C value="-10.27777" />
  <D value="8.039283E-06" />
  <E value="2" />
  <Tmin units="K" value="154.55" />
  <Tmax units="K" value="540.6" />
  </VaporPressure>
<HeatOfVaporization name="Heat of vaporization" units="J/kmol">
  <eqno value="106" />
  <A value="5.3257E+07" />
  <B value="1.2647" />
  <C value="-2.6729" />
  <D value="3.1124" />
  <E value="-1.3109" />
  <Tmin units="K" value="154.55" />
  <Tmax units="K" value="520.28" />
  </HeatOfVaporization>
<SolidHeatCapacityCp name="Solid heat capacity" units="J/kmol/K">
  <eqno value="1" />
  <A value="197190" />
  <Tmin units="K" value="0" />
  <Tmax units="K" value="540.5" />
  </SolidHeatCapacityCp>
<LiquidHeatCapacityCp name="Liquid heat capacity" units="J/kmol/K">
  <eqno value="16" />
  <A value="152590" />
  <B value="204.56" />
  <C value="5.9318" />
  <D value="0.021701" />
  <E value="-0.000022224" />
  <Tmin units="K" value="250" />
  <Tmax units="K" value="300" />
  </LiquidHeatCapacityCp>
<IdealGasHeatCapacityCp name="Ideal gas heat capacity" units="J/kmol/K">
  <eqno value="16" />
  <A value="102980" />
  <B value="-630.04" />
  <C value="13.15" />
  <D value="0.000058616" />
  <E value="-2.6799E-08" />
  <Tmin units="K" value="200" />
  <Tmax units="K" value="1500" />
  </IdealGasHeatCapacityCp>
<SecondVirialCoefficient name="Second virial coefficient" units="m3/kmol">
  <eqno value="104" />
  <A value="0.24168" />
  <B value="-300.63" />
  <C value="-39.661" />
  <D value="-8353.5" />
  <E value="16171" />
  <Tmin units="K" value="270.3" />
  <Tmax units="K" value="1971.32" />
  </SecondVirialCoefficient>
<LiquidViscosity name="Liquid viscosity" units="Pa.s">
  <eqno value="101" />
  <A value="-11.885" />
  <B value="1001.1" />
  <C value="0.10351" />
  <D value="-0.0000003544" />
  <E value="2" />
  <Tmin units="K" value="154.55" />
  <Tmax units="K" value="432.4" />
  </LiquidViscosity>
<VaporViscosity name="Vapour viscosity" units="Pa.s">
  <eqno value="102" />
  <A value="6.1521E-07" />
  <B value="0.52741" />
  <C value="287.77" />
  <D value="1840.5" />
  <Tmin units="K" value="366.62" />
  <Tmax units="K" value="1000" />
  </VaporViscosity>
<LiquidThermalConductivity name="Liquid thermal conductivity" units="W/m/K">
  <eqno value="16" />
  <A value="-0.055574" />
  <B value="4.7874" />
  <C value="-1.5746" />
  <D value="-0.0003945" />
  <E value="-0.0000016303" />
  <Tmin units="K" value="154.55" />
  <Tmax units="K" value="366.62" />
  </LiquidThermalConductivity>
<VaporThermalConductivity name="Vapour thermal conductivity" units="W/m/K">
  <eqno value="102" />
  <A value="0.000065519" />
  <B value="1.0691" />
  <C value="-74.423" />
  <D value="161360" />
  <Tmin units="K" value="154.55" />
  <Tmax units="K" value="1000" />
  </VaporThermalConductivity>
<SurfaceTension name="Surface tension" units="N/m">
  <eqno value="16" />
  <A value="-0.012077" />
  <B value="20.986" />
  <C value="-3.0408" />
  <D value="-0.00022974" />
  <E value="-0.0000045333" />
  <Tmin units="K" value="154.55" />
  <Tmax units="K" value="520.28" />
  </SurfaceTension>
<RPPHeatCapacityCp name="Ideal gas heat capacity (RPP)" units="J/kmol/K">
  <eqno value="100" />
  <A value="63173" />
  <B value="162.52" />
  <C value="0.96789" />
  <D value="-0.0013392" />
  <E value="0.0000005303" />
  <Tmin units="K" value="200" />
  <Tmax units="K" value="1000" />
  </RPPHeatCapacityCp>
<AntoineVaporPressure name="Antoine" units="Pa">
  <eqno value="10" />
  <A value="20.873" />
  <B value="2975.2" />
  <C value="-48.333" />
  <Tmin units="K" value="326.9" />
  <Tmax units="K" value="479.64" />
  </AntoineVaporPressure>
<LiquidViscosityRPS name="Liquid viscosity (RPS)" units="Pa.s">
  <eqno value="12" />
  <A value="-2.9085" />
  <B value="-0.016578" />
  <Tmin units="K" value="154.55" />
  <Tmax units="K" value="366.62" />
  </LiquidViscosityRPS>
<COSTALDVolume name="COSTLD characteristic volume (V*)" units="m3/kmol" value="0.425892" />
<DiameterLJ name="Lennard Jones diameter" units="m" value="6.792969E-10" />
<EnergyLJ name="Lennard Jones energy" units="K" value="304.1931" />
<RacketParameter name="Rackett parameter" units="_" value="0.267" />
<FullerVolume name="Fuller et al. diffusion volume" units="_" value="148.26" />
<MatthiasCopemanC2 name="Mathias-Copeman C2" units="_" value="-0.36464" />
<Parachor name="Parachor" units="kg0.25.m3/s0.5/kmol" value="0.0540613" />
<SpecificGravity name="Specific gravity" units="_" value="0.704619" />
<Charge name="Charge" units="_" value="0" />
<CostaldAcentricFactor name="SRK acentric factor" units="_" value="0.311" />
<WilsonVolume name="Wilson volume" units="m3/kmol" value="0.1444" />
<UniquacR name="UNIQUAC r" units="_" value="5.1734" />
<UniquacQ name="UNIQUAC q" units="_" value="4.392" />
<ApiSrkS2 name="API-SRK s2" units="_" value="0.000168" />
<MatthiasCopemanC3 name="Mathias-Copeman C3" units="_" value="0.76463" />
<ChaoSeaderAcentricFactor name="Chao-Seader acentric factor" units="_" value="0.311" />
<ChaoSeaderSolubilityParameter name="Chao-Seader solubility parameter" units="J0.5/m1.5" value="15040" />
<ChaoSeaderLiquidVolume name="Chao-Seader liquid volume" units="m3/kmol" value="0.1444" />
<UnifacVLE name="UNIFAC">
  <group id="1" value="3" />
  <group id="2" value="3" />
  <group id="3" value="1" />
  </UnifacVLE>
<UnifacLLE name="UNIFAC-LLE">
  <group id="1" value="3" />
  <group id="2" value="3" />
  <group id="3" value="1" />
  </UnifacLLE>
<Asog name="ASOG">
  <group id="1" value="3" />
  <group id="2" value="3" />
  <group id="3" value="1" />
  </Asog>
<GCmethod name="PPR78">
  <group id="1" value="3" />
  <group id="2" value="3" />
  <group id="3" value="1" />
  </GCmethod>
<Umr name="UMR">
  <group id="1" value="3" />
  <group id="2" value="3" />
  <group id="3" value="1" />
  </Umr>
<ModifiedUnifac name="Modified UNIFAC">
  <group id="1" value="3" />
  <group id="2" value="3" />
  <group id="3" value="1" />
  </ModifiedUnifac>
<CAS name="CAS number" value="617-78-7" />
<Smiles name="SMILES" value="CCC(CC)CC" />
</compound>

