<compound>
<LibraryIndex name="Index" value="1262" />
<CompoundID name="Name" value="caproic acid" />
<StructureFormula name="Structure" value="CH3(CH2)4COOH" />
<Family name="Family" value="50" />
<CriticalTemperature name="Critical temperature" units="K" value="660.2" />
<CriticalPressure name="Critical pressure" units="Pa" value="3308000" />
<CriticalVolume name="Critical volume" units="m3/kmol" value="0.408" />
<CriticalCompressibility name="Critical compressibility factor" units="_" value="0.246" />
<NormalBoilingPointTemperature name="Normal boiling point" units="K" value="478.85" />
<NormalMeltingPointTemperature name="Melting point" units="K" value="269.25" />
<TriplePointTemperature name="Triple point temperature" units="K" value="269.25" />
<TriplePointPressure name="Triple point pressure" units="Pa" value="0.317" />
<MolecularWeight name="Molecular weight" units="kg/kmol" value="116.158" />
<LiquidVolumeAtNormalBoilingPoint name="Liquid molar volume at normal boiling point" units="m3/kmol" value="0.1264" />
<AcentricityFactor name="Acentric factor" units="_" value="0.733019" />
<RadiusOfGyration name="Radius of gyration" units="m" value="4.404E-10" />
<SolubilityParameter name="Solubility parameter" units="J0.5/m1.5" value="21770" />
<DipoleMoment name="Dipole moment" units="Coulomb.m" value="5.24E-30" />
<VanDerWaalsVolume name="Van der Waals volume" units="m3/kmol" value="0.07411" />
<VanDerWaalsArea name="Van der Waals area" units="m2/kmol" value="1.058E+09" />
<HeatOfFormation name="IG heat of formation" units="J/kmol" value="-5.119E+08" />
<GibbsEnergyOfFormation name="IG Gibbs energy of formation" units="J/kmol" value="-3.38E+08" />
<AbsEntropy name="IG absolute entropy" units="J/kmol/K" value="441000" />
<HeatOfFusionAtMeltingPoint name="Heat of fusion at melting point" units="J/kmol" value="1.54E+07" />
<HeatOfCombustion name="Standard net heat of combustion LHV" units="J/kmol" value="-3.23E+09" />
<SolidDensity name="Solid density" units="kmol/m3">
  <eqno value="100" />
  <A value="10.084" />
  <B value="-0.003513" />
  <C value="0" />
  <D value="0" />
  <E value="0" />
  <Tmin units="K" value="107.7" />
  <Tmax units="K" value="269.25" />
  </SolidDensity>
<LiquidDensity name="Liquid density" units="kmol/m3">
  <eqno value="105" />
  <A value="0.62833" />
  <B value="0.25598" />
  <C value="660.2" />
  <D value="0.25304" />
  <Tmin units="K" value="269.25" />
  <Tmax units="K" value="660.2" />
  </LiquidDensity>
<VaporPressure name="Vapour pressure" units="Pa">
  <eqno value="101" />
  <A value="98.377" />
  <B value="-11394" />
  <C value="-10.224" />
  <D value="3.2948E-18" />
  <E value="6" />
  <Tmin units="K" value="269.25" />
  <Tmax units="K" value="660.2" />
  </VaporPressure>
<HeatOfVaporization name="Heat of vaporization" units="J/kmol">
  <eqno value="106" />
  <A value="9.0746E+07" />
  <B value="0.8926" />
  <C value="-0.75172" />
  <D value="0.34378" />
  <E value="0" />
  <Tmin units="K" value="269.25" />
  <Tmax units="K" value="660.2" />
  </HeatOfVaporization>
<SolidHeatCapacityCp name="Solid heat capacity" units="J/kmol/K">
  <eqno value="100" />
  <A value="-51483" />
  <B value="2375.8" />
  <C value="-12.949" />
  <D value="0.029689" />
  <E value="0" />
  <Tmin units="K" value="105" />
  <Tmax units="K" value="263.15" />
  </SolidHeatCapacityCp>
<LiquidHeatCapacityCp name="Liquid heat capacity" units="J/kmol/K">
  <eqno value="100" />
  <A value="161980" />
  <B value="44.116" />
  <C value="0.709" />
  <D value="0" />
  <E value="0" />
  <Tmin units="K" value="269.25" />
  <Tmax units="K" value="478.85" />
  </LiquidHeatCapacityCp>
<IdealGasHeatCapacityCp name="Ideal gas heat capacity" units="J/kmol/K">
  <eqno value="107" />
  <A value="116220" />
  <B value="207080" />
  <C value="686.61" />
  <D value="153550" />
  <E value="1932.5" />
  <Tmin units="K" value="298.15" />
  <Tmax units="K" value="1500" />
  </IdealGasHeatCapacityCp>
<LiquidViscosity name="Liquid viscosity" units="Pa.s">
  <eqno value="101" />
  <A value="-46.402" />
  <B value="3448.6" />
  <C value="5.0849" />
  <D value="0" />
  <E value="0" />
  <Tmin units="K" value="269.25" />
  <Tmax units="K" value="478.85" />
  </LiquidViscosity>
<VaporViscosity name="Vapour viscosity" units="Pa.s">
  <eqno value="102" />
  <A value="1.2145E-08" />
  <B value="1.0861" />
  <C value="0" />
  <D value="0" />
  <Tmin units="K" value="269.25" />
  <Tmax units="K" value="1000" />
  </VaporViscosity>
<LiquidThermalConductivity name="Liquid thermal conductivity" units="W/m/K">
  <eqno value="100" />
  <A value="0.1855" />
  <B value="-0.000146" />
  <C value="0" />
  <D value="0" />
  <E value="0" />
  <Tmin units="K" value="269.25" />
  <Tmax units="K" value="603.15" />
  </LiquidThermalConductivity>
<VaporThermalConductivity name="Vapour thermal conductivity" units="W/m/K">
  <eqno value="102" />
  <A value="1.2049E+09" />
  <B value="-4.0059" />
  <C value="-1668.8" />
  <D value="722550" />
  <Tmin units="K" value="478.85" />
  <Tmax units="K" value="641.42" />
  </VaporThermalConductivity>
<SurfaceTension name="Surface tension" units="N/m">
  <eqno value="106" />
  <A value="0.05401" />
  <B value="1.1233" />
  <C value="0" />
  <D value="0" />
  <E value="0" />
  <Tmin units="K" value="269.25" />
  <Tmax units="K" value="660.2" />
  </SurfaceTension>
<AntoineVaporPressure name="Antoine" units="Pa">
  <eqno value="10" />
  <A value="32.51164" />
  <B value="12677.52" />
  <C value="129.439" />
  <Tmin units="K" value="269" />
  <Tmax units="K" value="660" />
  </AntoineVaporPressure>
<FullerVolume name="Fuller et al. diffusion volume" units="_" value="135.34" />
<Parachor name="Parachor" units="kg0.25.m3/s0.5/kmol" value="0.0514456" />
<SpecificGravity name="Specific gravity" units="_" value="0.92" />
<Charge name="Charge" units="_" value="0" />
<CostaldAcentricFactor name="SRK acentric factor" units="_" value="0.733019" />
<WilsonVolume name="Wilson volume" units="m3/kmol" value="0.1264" />
<UniquacR name="UNIQUAC r" units="_" value="4.9" />
<UniquacQ name="UNIQUAC q" units="_" value="4.232" />
<ChaoSeaderAcentricFactor name="Chao-Seader acentric factor" units="_" value="0.733019" />
<ChaoSeaderSolubilityParameter name="Chao-Seader solubility parameter" units="J0.5/m1.5" value="21770" />
<ChaoSeaderLiquidVolume name="Chao-Seader liquid volume" units="m3/kmol" value="0.1264" />
<UnifacVLE name="UNIFAC">
  <group id="1" value="1" />
  <group id="2" value="4" />
  <group id="43" value="1" />
  </UnifacVLE>
<UnifacLLE name="UNIFAC-LLE">
  <group id="1" value="1" />
  <group id="2" value="4" />
  <group id="23" value="1" />
  </UnifacLLE>
<Asog name="ASOG">
  <group id="1" value="1" />
  <group id="2" value="4" />
  <group id="24" value="1" />
  </Asog>
<Umr name="UMR">
  <group id="1" value="1" />
  <group id="2" value="4" />
  <group id="43" value="1" />
  </Umr>
<ModifiedUnifac name="Modified UNIFAC">
  <group id="1" value="1" />
  <group id="2" value="4" />
  <group id="42" value="1" />
  </ModifiedUnifac>
<CAS name="CAS number" value="142-62-1" />
<Smiles name="SMILES" value="CCCCCC(=O)O" />
</compound>

