<compound>
<LibraryIndex name="Index" value="4868" />
<CompoundID name="Name" value="dichloroacetaldehyde" />
<StructureFormula name="Structure" value="CHCl2CHO" />
<Family name="Family" value="71" />
<CriticalTemperature name="Critical temperature" units="K" value="555" />
<CriticalPressure name="Critical pressure" units="Pa" value="4950000" />
<CriticalVolume name="Critical volume" units="m3/kmol" value="0.239" />
<CriticalCompressibility name="Critical compressibility factor" units="_" value="0.256" />
<NormalBoilingPointTemperature name="Normal boiling point" units="K" value="362" />
<NormalMeltingPointTemperature name="Melting point" units="K" value="223" />
<TriplePointTemperature name="Triple point temperature" units="K" value="223" />
<TriplePointPressure name="Triple point pressure" units="Pa" value="30.4712" />
<MolecularWeight name="Molecular weight" units="kg/kmol" value="112.9427" />
<LiquidVolumeAtNormalBoilingPoint name="Liquid molar volume at normal boiling point" units="m3/kmol" value="0.0800261" />
<AcentricityFactor name="Acentric factor" units="_" value="0.343679" />
<RadiusOfGyration name="Radius of gyration" units="m" value="3.419E-10" />
<SolubilityParameter name="Solubility parameter" units="J0.5/m1.5" value="21090" />
<DipoleMoment name="Dipole moment" units="Coulomb.m" value="7.87E-30" />
<VanDerWaalsVolume name="Van der Waals volume" units="m3/kmol" value="0.0464" />
<VanDerWaalsArea name="Van der Waals area" units="m2/kmol" value="6.58E+08" />
<HeatOfFormation name="IG heat of formation" units="J/kmol" value="-1.8E+08" />
<GibbsEnergyOfFormation name="IG Gibbs energy of formation" units="J/kmol" value="-1.387E+08" />
<AbsEntropy name="IG absolute entropy" units="J/kmol/K" value="329000" />
<HeatOfFusionAtMeltingPoint name="Heat of fusion at melting point" units="J/kmol" value="1.4E+07" />
<HeatOfCombustion name="Standard net heat of combustion LHV" units="J/kmol" value="-8.11E+08" />
<SolidDensity name="Solid density" units="kmol/m3">
  <eqno value="2" />
  <A value="17.182" />
  <B value="-0.0082192" />
  <Tmin units="K" value="89.2" />
  <Tmax units="K" value="223" />
  </SolidDensity>
<LiquidDensity name="Liquid density" units="kmol/m3">
  <eqno value="105" />
  <A value="1.0695" />
  <B value="0.25535" />
  <C value="555" />
  <D value="0.28663" />
  <Tmin units="K" value="223" />
  <Tmax units="K" value="537.53" />
  </LiquidDensity>
<VaporPressure name="Vapour pressure" units="Pa">
  <eqno value="101" />
  <A value="90.61988" />
  <B value="-7239.82" />
  <C value="-10.19237" />
  <D value="7.278159E-06" />
  <E value="2" />
  <Tmin units="K" value="223" />
  <Tmax units="K" value="555" />
  </VaporPressure>
<HeatOfVaporization name="Heat of vaporization" units="J/kmol">
  <eqno value="106" />
  <A value="5.4311E+07" />
  <B value="0.74287" />
  <C value="-0.97767" />
  <D value="1.092" />
  <E value="-0.46681" />
  <Tmin units="K" value="223" />
  <Tmax units="K" value="537.53" />
  </HeatOfVaporization>
<SolidHeatCapacityCp name="Solid heat capacity" units="J/kmol/K">
  <eqno value="100" />
  <A value="4914.9" />
  <B value="686.94" />
  <C value="-1.5072" />
  <D value="0.0043969" />
  <E value="-0.0000057306" />
  <Tmin units="K" value="50" />
  <Tmax units="K" value="223" />
  </SolidHeatCapacityCp>
<LiquidHeatCapacityCp name="Liquid heat capacity" units="J/kmol/K">
  <eqno value="16" />
  <A value="79819" />
  <B value="-93.388" />
  <C value="10.443" />
  <D value="0.0030492" />
  <E value="-0.0000015371" />
  <Tmin units="K" value="277.5" />
  <Tmax units="K" value="407.5" />
  </LiquidHeatCapacityCp>
<IdealGasHeatCapacityCp name="Ideal gas heat capacity" units="J/kmol/K">
  <eqno value="16" />
  <A value="68025" />
  <B value="-873.5" />
  <C value="12.537" />
  <D value="-0.00086712" />
  <E value="2.2298E-07" />
  <Tmin units="K" value="223" />
  <Tmax units="K" value="1200" />
  </IdealGasHeatCapacityCp>
<SecondVirialCoefficient name="Second virial coefficient" units="m3/kmol">
  <eqno value="104" />
  <A value="0.14666" />
  <B value="-146.64" />
  <C value="-46.944" />
  <D value="9273.3" />
  <E value="-59706" />
  <Tmin units="K" value="277.5" />
  <Tmax units="K" value="2000" />
  </SecondVirialCoefficient>
<LiquidViscosity name="Liquid viscosity" units="Pa.s">
  <eqno value="101" />
  <A value="-19.012" />
  <B value="2548.4" />
  <C value="0.73092" />
  <D value="-0.0000016452" />
  <E value="2" />
  <Tmin units="K" value="223" />
  <Tmax units="K" value="455" />
  </LiquidViscosity>
<VaporViscosity name="Vapour viscosity" units="Pa.s">
  <eqno value="102" />
  <A value="3.0229E-07" />
  <B value="0.67781" />
  <C value="216.84" />
  <D value="-7478.9" />
  <Tmin units="K" value="223" />
  <Tmax units="K" value="1000" />
  </VaporViscosity>
<LiquidThermalConductivity name="Liquid thermal conductivity" units="W/m/K">
  <eqno value="16" />
  <A value="-0.006509" />
  <B value="-45.732" />
  <C value="-1.1121" />
  <D value="-0.0023494" />
  <E value="-2.6574E-07" />
  <Tmin units="K" value="223" />
  <Tmax units="K" value="362" />
  </LiquidThermalConductivity>
<VaporThermalConductivity name="Vapour thermal conductivity" units="W/m/K">
  <eqno value="102" />
  <A value="0.00042346" />
  <B value="0.72759" />
  <C value="609.27" />
  <D value="10645" />
  <Tmin units="K" value="223" />
  <Tmax units="K" value="1000" />
  </VaporThermalConductivity>
<SurfaceTension name="Surface tension" units="N/m">
  <eqno value="16" />
  <A value="-0.016507" />
  <B value="102.49" />
  <C value="-3.2427" />
  <D value="0.002483" />
  <E value="-0.0000080057" />
  <Tmin units="K" value="223" />
  <Tmax units="K" value="537.53" />
  </SurfaceTension>
<RPPHeatCapacityCp name="Ideal gas heat capacity (RPP)" units="J/kmol/K">
  <eqno value="4" />
  <A value="31310" />
  <B value="196.15" />
  <C value="-0.12609" />
  <D value="0.000027886" />
  <Tmin units="K" value="223" />
  <Tmax units="K" value="1200" />
  </RPPHeatCapacityCp>
<AntoineVaporPressure name="Antoine" units="Pa">
  <eqno value="10" />
  <A value="21.357" />
  <B value="2972.9" />
  <C value="-59.701" />
  <Tmin units="K" value="339.2" />
  <Tmax units="K" value="488.6" />
  </AntoineVaporPressure>
<LiquidViscosityRPS name="Liquid viscosity (RPS)" units="Pa.s">
  <eqno value="13" />
  <A value="11.143" />
  <B value="-0.089877" />
  <C value="0.00010345" />
  <Tmin units="K" value="223" />
  <Tmax units="K" value="362" />
  </LiquidViscosityRPS>
<COSTALDVolume name="COSTLD characteristic volume (V*)" units="m3/kmol" value="0.246373" />
<DiameterLJ name="Lennard Jones diameter" units="m" value="5.940499E-10" />
<EnergyLJ name="Lennard Jones energy" units="K" value="268.4541" />
<RacketParameter name="Rackett parameter" units="_" value="0.260402" />
<FullerVolume name="Fuller et al. diffusion volume" units="_" value="84.53" />
<Parachor name="Parachor" units="kg0.25.m3/s0.5/kmol" value="0.0358" />
<SpecificGravity name="Specific gravity" units="_" value="1.4274" />
<Charge name="Charge" units="_" value="0" />
<CostaldAcentricFactor name="SRK acentric factor" units="_" value="0.343679" />
<WilsonVolume name="Wilson volume" units="m3/kmol" value="0.0788193" />
<UniquacR name="UNIQUAC r" units="_" value="3.058668" />
<UniquacQ name="UNIQUAC q" units="_" value="2.632" />
<ChaoSeaderAcentricFactor name="Chao-Seader acentric factor" units="_" value="0.343679" />
<ChaoSeaderSolubilityParameter name="Chao-Seader solubility parameter" units="J0.5/m1.5" value="21250.9" />
<ChaoSeaderLiquidVolume name="Chao-Seader liquid volume" units="m3/kmol" value="0.0788193" />
<UnifacVLE name="UNIFAC">
  <group id="27" value="1" />
  <group id="49" value="1" />
  </UnifacVLE>
<Umr name="UMR">
  <group id="27" value="1" />
  <group id="49" value="1" />
  </Umr>
<CAS name="CAS number" value="79-02-7" />
<Smiles name="SMILES" value="[Cl]C([Cl])C(=O)" />
</compound>

