<compound>
<LibraryIndex name="Index" value="1401" />
<CompoundID name="Name" value="dimethyl ether" />
<StructureFormula name="Structure" value="CH3OCH3" />
<Family name="Family" value="61" />
<CriticalTemperature name="Critical temperature" units="K" value="400.1" />
<CriticalPressure name="Critical pressure" units="Pa" value="5400000" />
<CriticalVolume name="Critical volume" units="m3/kmol" value="0.17" />
<CriticalCompressibility name="Critical compressibility factor" units="_" value="0.276" />
<NormalBoilingPointTemperature name="Normal boiling point" units="K" value="248.31" />
<NormalMeltingPointTemperature name="Melting point" units="K" value="131.66" />
<TriplePointTemperature name="Triple point temperature" units="K" value="131.65" />
<TriplePointPressure name="Triple point pressure" units="Pa" value="3.04959" />
<MolecularWeight name="Molecular weight" units="kg/kmol" value="46.06844" />
<LiquidVolumeAtNormalBoilingPoint name="Liquid molar volume at normal boiling point" units="m3/kmol" value="0.06907" />
<AcentricityFactor name="Acentric factor" units="_" value="0.191" />
<RadiusOfGyration name="Radius of gyration" units="m" value="2.154E-10" />
<SolubilityParameter name="Solubility parameter" units="J0.5/m1.5" value="15120" />
<DipoleMoment name="Dipole moment" units="Coulomb.m" value="4.34E-30" />
<VanDerWaalsVolume name="Van der Waals volume" units="m3/kmol" value="0.03104" />
<VanDerWaalsArea name="Van der Waals area" units="m2/kmol" value="4.84E+08" />
<HeatOfFormation name="IG heat of formation" units="J/kmol" value="-1.841E+08" />
<GibbsEnergyOfFormation name="IG Gibbs energy of formation" units="J/kmol" value="-1.128E+08" />
<AbsEntropy name="IG absolute entropy" units="J/kmol/K" value="266700" />
<HeatOfFusionAtMeltingPoint name="Heat of fusion at melting point" units="J/kmol" value="4937000" />
<MatthiasCopemanC1 name="Mathias-Copeman C1" units="_" value="0.77572" />
<HeatOfCombustion name="Standard net heat of combustion LHV" units="J/kmol" value="-1.3284E+09" />
<SolidDensity name="Solid density" units="kmol/m3">
  <eqno value="2" />
  <A value="24.059" />
  <B value="-0.020492" />
  <Tmin units="K" value="52.66" />
  <Tmax units="K" value="131.65" />
  </SolidDensity>
<LiquidDensity name="Liquid density" units="kmol/m3">
  <eqno value="105" />
  <A value="1.4889" />
  <B value="0.26123" />
  <C value="400.1" />
  <D value="0.27948" />
  <Tmin units="K" value="131.65" />
  <Tmax units="K" value="400.1" />
  </LiquidDensity>
<VaporPressure name="Vapour pressure" units="Pa">
  <eqno value="101" />
  <A value="50.32175" />
  <B value="-3631.453" />
  <C value="-4.444735" />
  <D value="5.290757E-06" />
  <E value="2" />
  <Tmin units="K" value="131.65" />
  <Tmax units="K" value="400.1" />
  </VaporPressure>
<HeatOfVaporization name="Heat of vaporization" units="J/kmol">
  <eqno value="106" />
  <A value="3.8521E+07" />
  <B value="2.2845" />
  <C value="-5.7518" />
  <D value="6.5695" />
  <E value="-2.6976" />
  <Tmin units="K" value="131.65" />
  <Tmax units="K" value="400.1" />
  </HeatOfVaporization>
<SolidHeatCapacityCp name="Solid heat capacity" units="J/kmol/K">
  <eqno value="100" />
  <A value="-13616" />
  <B value="1241.9" />
  <C value="-7.8805" />
  <D value="0.023826" />
  <E value="0.0000089126" />
  <Tmin units="K" value="20" />
  <Tmax units="K" value="131.64" />
  </SolidHeatCapacityCp>
<LiquidHeatCapacityCp name="Liquid heat capacity" units="J/kmol/K">
  <eqno value="16" />
  <A value="97754" />
  <B value="353.35" />
  <C value="-1.896" />
  <D value="0.040999" />
  <E value="-0.000017816" />
  <Tmin units="K" value="131.64" />
  <Tmax units="K" value="250" />
  </LiquidHeatCapacityCp>
<IdealGasHeatCapacityCp name="Ideal gas heat capacity" units="J/kmol/K">
  <eqno value="16" />
  <A value="37573.94" />
  <B value="-346.059" />
  <C value="11.12596" />
  <D value="0.00118434" />
  <E value="-4.086847E-07" />
  <Tmin units="K" value="80" />
  <Tmax units="K" value="1500" />
  </IdealGasHeatCapacityCp>
<SecondVirialCoefficient name="Second virial coefficient" units="m3/kmol">
  <eqno value="104" />
  <A value="0.1196" />
  <B value="-114.27" />
  <C value="-4.7652" />
  <D value="-552.86" />
  <E value="923.94" />
  <Tmin units="K" value="200" />
  <Tmax units="K" value="1500" />
  </SecondVirialCoefficient>
<LiquidViscosity name="Liquid viscosity" units="Pa.s">
  <eqno value="101" />
  <A value="-10.661" />
  <B value="449.83" />
  <C value="0.0072727" />
  <D value="-3.6906E-08" />
  <E value="2" />
  <Tmin units="K" value="131.65" />
  <Tmax units="K" value="248.31" />
  </LiquidViscosity>
<VaporViscosity name="Vapour viscosity" units="Pa.s">
  <eqno value="102" />
  <A value="0.0000027281" />
  <B value="0.3952" />
  <C value="534.12" />
  <D value="2319" />
  <Tmin units="K" value="131.65" />
  <Tmax units="K" value="1000" />
  </VaporViscosity>
<LiquidThermalConductivity name="Liquid thermal conductivity" units="W/m/K">
  <eqno value="16" />
  <A value="-0.15344" />
  <B value="-11.847" />
  <C value="-0.56462" />
  <D value="-0.0022104" />
  <E value="5.6048E-07" />
  <Tmin units="K" value="120.03" />
  <Tmax units="K" value="320.03" />
  </LiquidThermalConductivity>
<VaporThermalConductivity name="Vapour thermal conductivity" units="W/m/K">
  <eqno value="102" />
  <A value="0.059968" />
  <B value="0.26671" />
  <C value="1018.3" />
  <D value="1098900" />
  <Tmin units="K" value="131.65" />
  <Tmax units="K" value="1500" />
  </VaporThermalConductivity>
<SurfaceTension name="Surface tension" units="N/m">
  <eqno value="16" />
  <A value="-0.0093353" />
  <B value="46.031" />
  <C value="-3.4828" />
  <D value="0.0024176" />
  <E value="-0.000014319" />
  <Tmin units="K" value="131.65" />
  <Tmax units="K" value="400.1" />
  </SurfaceTension>
<RPPHeatCapacityCp name="Ideal gas heat capacity (RPP)" units="J/kmol/K">
  <eqno value="100" />
  <A value="36259" />
  <B value="50.469" />
  <C value="0.24104" />
  <D value="-0.00029774" />
  <E value="1.0659E-07" />
  <Tmin units="K" value="100" />
  <Tmax units="K" value="1000" />
  </RPPHeatCapacityCp>
<RelativeStaticPermittivity name="Relative static permittivity" units="_">
  <eqno value="4" />
  <A value="14.87198" />
  <B value="-0.0266292" />
  <C value="-0.0000434922" />
  <D value="0.0000000821" />
  <Tmin units="K" value="155" />
  <Tmax units="K" value="510" />
  </RelativeStaticPermittivity>
<AntoineVaporPressure name="Antoine" units="Pa">
  <eqno value="10" />
  <A value="21.354" />
  <B value="2237.8" />
  <C value="-20.775" />
  <Tmin units="K" value="241.96" />
  <Tmax units="K" value="357.71" />
  </AntoineVaporPressure>
<LiquidViscosityRPS name="Liquid viscosity (RPS)" units="Pa.s">
  <eqno value="13" />
  <A value="-3.0837" />
  <B value="-0.041241" />
  <C value="0.000073668" />
  <Tmin units="K" value="131.65" />
  <Tmax units="K" value="248.31" />
  </LiquidViscosityRPS>
<COSTALDVolume name="COSTLD characteristic volume (V*)" units="m3/kmol" value="0.18366" />
<DiameterLJ name="Lennard Jones diameter" units="m" value="4.21E-10" />
<EnergyLJ name="Lennard Jones energy" units="K" value="432" />
<FullerVolume name="Fuller et al. diffusion volume" units="_" value="51.77" />
<MatthiasCopemanC2 name="Mathias-Copeman C2" units="_" value="0.04503" />
<Parachor name="Parachor" units="kg0.25.m3/s0.5/kmol" value="0.0233" />
<SpecificGravity name="Specific gravity" units="_" value="0.670302" />
<Charge name="Charge" units="_" value="0" />
<CostaldAcentricFactor name="SRK acentric factor" units="_" value="0.1972" />
<WilsonVolume name="Wilson volume" units="m3/kmol" value="0.0703107" />
<UniquacR name="UNIQUAC r" units="_" value="2.0461" />
<UniquacQ name="UNIQUAC q" units="_" value="1.936" />
<MatthiasCopemanC3 name="Mathias-Copeman C3" units="_" value="-0.17891" />
<ChaoSeaderAcentricFactor name="Chao-Seader acentric factor" units="_" value="0.2" />
<ChaoSeaderSolubilityParameter name="Chao-Seader solubility parameter" units="J0.5/m1.5" value="15212.1" />
<ChaoSeaderLiquidVolume name="Chao-Seader liquid volume" units="m3/kmol" value="0.0703107" />
<UnifacVLE name="UNIFAC">
  <group id="1" value="1" />
  <group id="25" value="1" />
  </UnifacVLE>
<UnifacLLE name="UNIFAC-LLE">
  <group id="1" value="1" />
  <group id="27" value="1" />
  </UnifacLLE>
<Asog name="ASOG">
  <group id="1" value="2" />
  <group id="19" value="1" />
  </Asog>
<Umr name="UMR">
  <group id="1" value="1" />
  <group id="25" value="1" />
  </Umr>
<ModifiedUnifac name="Modified UNIFAC">
  <group id="1" value="1" />
  <group id="24" value="1" />
  </ModifiedUnifac>
<CAS name="CAS number" value="115-10-6" />
<Smiles name="SMILES" value="COC" />
</compound>

