<compound>
<LibraryIndex name="Index" value="2391" />
<CompoundID name="Name" value="dimethyl carbonate" />
<StructureFormula name="Structure" value="(CH3O)2CO" />
<Family name="Family" value="45" />
<CriticalTemperature name="Critical temperature" units="K" value="557" />
<CriticalPressure name="Critical pressure" units="Pa" value="4800000" />
<CriticalVolume name="Critical volume" units="m3/kmol" value="0.25163" />
<CriticalCompressibility name="Critical compressibility factor" units="_" value="0.261" />
<NormalBoilingPointTemperature name="Normal boiling point" units="K" value="363.24" />
<NormalMeltingPointTemperature name="Melting point" units="K" value="276.15" />
<TriplePointTemperature name="Triple point temperature" units="K" value="273.15" />
<TriplePointPressure name="Triple point pressure" units="Pa" value="1825.53" />
<MolecularWeight name="Molecular weight" units="kg/kmol" value="90.07794" />
<LiquidVolumeAtNormalBoilingPoint name="Liquid molar volume at normal boiling point" units="m3/kmol" value="0.084825" />
<AcentricityFactor name="Acentric factor" units="_" value="0.337" />
<RadiusOfGyration name="Radius of gyration" units="m" value="3.247E-10" />
<SolubilityParameter name="Solubility parameter" units="J0.5/m1.5" value="20240" />
<DipoleMoment name="Dipole moment" units="Coulomb.m" value="3.0E-30" />
<VanDerWaalsVolume name="Van der Waals volume" units="m3/kmol" value="0.04624" />
<VanDerWaalsArea name="Van der Waals area" units="m2/kmol" value="7.04E+08" />
<HeatOfFormation name="IG heat of formation" units="J/kmol" value="-5.701E+08" />
<GibbsEnergyOfFormation name="IG Gibbs energy of formation" units="J/kmol" value="-4.524E+08" />
<AbsEntropy name="IG absolute entropy" units="J/kmol/K" value="321600" />
<HeatOfFusionAtMeltingPoint name="Heat of fusion at melting point" units="J/kmol" value="1.2E+07" />
<MatthiasCopemanC1 name="Mathias-Copeman C1" units="_" value="0.98328" />
<HeatOfCombustion name="Standard net heat of combustion LHV" units="J/kmol" value="-1.295E+09" />
<SolidDensity name="Solid density" units="kmol/m3">
  <eqno value="100" />
  <A value="15.551" />
  <B value="-0.0071164" />
  <C value="0" />
  <D value="0" />
  <E value="0" />
  <Tmin units="K" value="109.26" />
  <Tmax units="K" value="273.15" />
  </SolidDensity>
<LiquidDensity name="Liquid density" units="kmol/m3">
  <eqno value="105" />
  <A value="0.0073625" />
  <B value="0.022214" />
  <C value="557" />
  <D value="0.083013" />
  <Tmin units="K" value="273.15" />
  <Tmax units="K" value="548" />
  </LiquidDensity>
<VaporPressure name="Vapour pressure" units="Pa">
  <eqno value="101" />
  <A value="127.2975" />
  <B value="-8353.984" />
  <C value="-16.14514" />
  <D value="0.0000181933" />
  <E value="2" />
  <Tmin units="K" value="273.15" />
  <Tmax units="K" value="548" />
  </VaporPressure>
<HeatOfVaporization name="Heat of vaporization" units="J/kmol">
  <eqno value="106" />
  <A value="5.291764E+07" />
  <B value="1.146922" />
  <C value="-2.489366" />
  <D value="2.898325" />
  <E value="-1.182726" />
  <Tmin units="K" value="273.15" />
  <Tmax units="K" value="548" />
  </HeatOfVaporization>
<SolidHeatCapacityCp name="Solid heat capacity" units="J/kmol/K">
  <eqno value="102" />
  <A value="1690" />
  <B value="0.79267" />
  <C value="0" />
  <D value="0" />
  <Tmin units="K" value="50" />
  <Tmax units="K" value="273.15" />
  </SolidHeatCapacityCp>
<LiquidHeatCapacityCp name="Liquid heat capacity" units="J/kmol/K">
  <eqno value="16" />
  <A value="170430" />
  <B value="-2560.3" />
  <C value="-9.9628" />
  <D value="-0.012169" />
  <E value="0.000014736" />
  <Tmin units="K" value="292.95" />
  <Tmax units="K" value="361.15" />
  </LiquidHeatCapacityCp>
<IdealGasHeatCapacityCp name="Ideal gas heat capacity" units="J/kmol/K">
  <eqno value="16" />
  <A value="62577" />
  <B value="-594.2" />
  <C value="12.53" />
  <D value="-0.000022352" />
  <E value="-2.2803E-08" />
  <Tmin units="K" value="273" />
  <Tmax units="K" value="1500" />
  </IdealGasHeatCapacityCp>
<SecondVirialCoefficient name="Second virial coefficient" units="m3/kmol">
  <eqno value="104" />
  <A value="0.17199" />
  <B value="-186.08" />
  <C value="-30.494" />
  <D value="-4242.1" />
  <E value="2158.1" />
  <Tmin units="K" value="274" />
  <Tmax units="K" value="1500" />
  </SecondVirialCoefficient>
<LiquidViscosity name="Liquid viscosity" units="Pa.s">
  <eqno value="101" />
  <A value="-235.18" />
  <B value="9633.9" />
  <C value="34.904" />
  <D value="-0.000038795" />
  <E value="2" />
  <Tmin units="K" value="273.15" />
  <Tmax units="K" value="438.4" />
  </LiquidViscosity>
<VaporViscosity name="Vapour viscosity" units="Pa.s">
  <eqno value="102" />
  <A value="3.5376E-07" />
  <B value="0.64846" />
  <C value="244.72" />
  <D value="-7103.7" />
  <Tmin units="K" value="273.15" />
  <Tmax units="K" value="1000" />
  </VaporViscosity>
<LiquidThermalConductivity name="Liquid thermal conductivity" units="W/m/K">
  <eqno value="16" />
  <A value="0.011223" />
  <B value="-183.44" />
  <C value="0.22279" />
  <D value="-0.0056614" />
  <E value="0.0000021056" />
  <Tmin units="K" value="273.15" />
  <Tmax units="K" value="363.4" />
  </LiquidThermalConductivity>
<VaporThermalConductivity name="Vapour thermal conductivity" units="W/m/K">
  <eqno value="102" />
  <A value="0.00023689" />
  <B value="0.89541" />
  <C value="568.87" />
  <D value="19356" />
  <Tmin units="K" value="273.15" />
  <Tmax units="K" value="1000" />
  </VaporThermalConductivity>
<SurfaceTension name="Surface tension" units="N/m">
  <eqno value="116" />
  <A value="0" />
  <B value="0" />
  <C value="0" />
  <D value="0.0365301" />
  <E value="0.0365301" />
  <Tmin units="K" value="276.15" />
  <Tmax units="K" value="557" />
  </SurfaceTension>
<RPPHeatCapacityCp name="Ideal gas heat capacity (RPP)" units="J/kmol/K">
  <eqno value="4" />
  <A value="4533.1" />
  <B value="384.59" />
  <C value="-0.2325" />
  <D value="0.000052013" />
  <Tmin units="K" value="273" />
  <Tmax units="K" value="1500" />
  </RPPHeatCapacityCp>
<RelativeStaticPermittivity name="Relative static permittivity" units="_">
  <eqno value="120" />
  <A value="-2.258" />
  <B value="-1545" />
  <C value="-9.27" />
  <Tmin units="K" value="280" />
  <Tmax units="K" value="450" />
  </RelativeStaticPermittivity>
<AntoineVaporPressure name="Antoine" units="Pa">
  <eqno value="10" />
  <A value="21.715" />
  <B value="3264.5" />
  <C value="-42.989" />
  <Tmin units="K" value="335.2" />
  <Tmax units="K" value="490.14" />
  </AntoineVaporPressure>
<LiquidViscosityRPS name="Liquid viscosity (RPS)" units="Pa.s">
  <eqno value="12" />
  <A value="-5.3228" />
  <B value="-0.0072352" />
  <Tmin units="K" value="273.15" />
  <Tmax units="K" value="438.4" />
  </LiquidViscosityRPS>
<COSTALDVolume name="COSTLD characteristic volume (V*)" units="m3/kmol" value="0.245512" />
<DiameterLJ name="Lennard Jones diameter" units="m" value="5.904691E-10" />
<EnergyLJ name="Lennard Jones energy" units="K" value="288.8513" />
<RacketParameter name="Rackett parameter" units="_" value="0.261" />
<FullerVolume name="Fuller et al. diffusion volume" units="_" value="79.89" />
<MatthiasCopemanC2 name="Mathias-Copeman C2" units="_" value="0" />
<Parachor name="Parachor" units="kg0.25.m3/s0.5/kmol" value="0.0350959" />
<SpecificGravity name="Specific gravity" units="_" value="1.075345" />
<Charge name="Charge" units="_" value="0" />
<CostaldAcentricFactor name="SRK acentric factor" units="_" value="0.337" />
<WilsonVolume name="Wilson volume" units="m3/kmol" value="0.084825" />
<UniquacR name="UNIQUAC r" units="_" value="3.3822" />
<UniquacQ name="UNIQUAC q" units="_" value="3.086" />
<MatthiasCopemanC3 name="Mathias-Copeman C3" units="_" value="0" />
<ChaoSeaderAcentricFactor name="Chao-Seader acentric factor" units="_" value="0.337" />
<ChaoSeaderSolubilityParameter name="Chao-Seader solubility parameter" units="J0.5/m1.5" value="20240" />
<ChaoSeaderLiquidVolume name="Chao-Seader liquid volume" units="m3/kmol" value="0.084825" />
<UnifacVLE name="UNIFAC">
  <group id="1" value="2" />
  <group id="120" value="1" />
  </UnifacVLE>
<Asog name="ASOG">
  <group id="1" value="2" />
  <group id="19" value="1" />
  <group id="22" value="1" />
  </Asog>
<Umr name="UMR">
  <group id="1" value="2" />
  <group id="120" value="1" />
  </Umr>
<CAS name="CAS number" value="616-38-6" />
<Smiles name="SMILES" value="COC(=O)OC" />
</compound>

