<compound>
<LibraryIndex name="Index" value="403" />
<CompoundID name="Name" value="ethylacetylene" />
<StructureFormula name="Structure" value="CH3CH2CCH" />
<Family name="Family" value="15" />
<CriticalTemperature name="Critical temperature" units="K" value="440" />
<CriticalPressure name="Critical pressure" units="Pa" value="4600000" />
<CriticalVolume name="Critical volume" units="m3/kmol" value="0.208" />
<CriticalCompressibility name="Critical compressibility factor" units="_" value="0.262" />
<NormalBoilingPointTemperature name="Normal boiling point" units="K" value="281.21" />
<NormalMeltingPointTemperature name="Melting point" units="K" value="147.429" />
<TriplePointTemperature name="Triple point temperature" units="K" value="147.43" />
<TriplePointPressure name="Triple point pressure" units="Pa" value="1.17966" />
<MolecularWeight name="Molecular weight" units="kg/kmol" value="54.09044" />
<LiquidVolumeAtNormalBoilingPoint name="Liquid molar volume at normal boiling point" units="m3/kmol" value="0.08322" />
<AcentricityFactor name="Acentric factor" units="_" value="0.245" />
<RadiusOfGyration name="Radius of gyration" units="m" value="2.616E-10" />
<SolubilityParameter name="Solubility parameter" units="J0.5/m1.5" value="15950" />
<DipoleMoment name="Dipole moment" units="Coulomb.m" value="2.7E-30" />
<VanDerWaalsVolume name="Van der Waals volume" units="m3/kmol" value="0.0435" />
<VanDerWaalsArea name="Van der Waals area" units="m2/kmol" value="6.19E+08" />
<HeatOfFormation name="IG heat of formation" units="J/kmol" value="1.652E+08" />
<GibbsEnergyOfFormation name="IG Gibbs energy of formation" units="J/kmol" value="2.0225E+08" />
<AbsEntropy name="IG absolute entropy" units="J/kmol/K" value="290390" />
<HeatOfFusionAtMeltingPoint name="Heat of fusion at melting point" units="J/kmol" value="6029270" />
<MatthiasCopemanC1 name="Mathias-Copeman C1" units="_" value="0.86034" />
<HeatOfCombustion name="Standard net heat of combustion LHV" units="J/kmol" value="-2.4647E+09" />
<SolidDensity name="Solid density" units="kmol/m3">
  <eqno value="2" />
  <A value="19.004" />
  <B value="-0.015369" />
  <Tmin units="K" value="58.97" />
  <Tmax units="K" value="147.43" />
  </SolidDensity>
<LiquidDensity name="Liquid density" units="kmol/m3">
  <eqno value="105" />
  <A value="1.3447" />
  <B value="0.27928" />
  <C value="440" />
  <D value="0.29778" />
  <Tmin units="K" value="147.43" />
  <Tmax units="K" value="440" />
  </LiquidDensity>
<VaporPressure name="Vapour pressure" units="Pa">
  <eqno value="101" />
  <A value="76.044" />
  <B value="-5031.59" />
  <C value="-8.40406" />
  <D value="9.681824E-06" />
  <E value="2" />
  <Tmin units="K" value="147.43" />
  <Tmax units="K" value="440" />
  </VaporPressure>
<HeatOfVaporization name="Heat of vaporization" units="J/kmol">
  <eqno value="106" />
  <A value="3.604722E+07" />
  <B value="0.546439" />
  <C value="-0.26185" />
  <D value="0" />
  <E value="0" />
  <Tmin units="K" value="147.43" />
  <Tmax units="K" value="463.15" />
  </HeatOfVaporization>
<SolidHeatCapacityCp name="Solid heat capacity" units="J/kmol/K">
  <eqno value="100" />
  <A value="-16604" />
  <B value="1465.2" />
  <C value="-11.028" />
  <D value="0.042838" />
  <E value="-0.000042808" />
  <Tmin units="K" value="20" />
  <Tmax units="K" value="140" />
  </SolidHeatCapacityCp>
<LiquidHeatCapacityCp name="Liquid heat capacity" units="J/kmol/K">
  <eqno value="16" />
  <A value="109820" />
  <B value="1148.7" />
  <C value="-9.607" />
  <D value="0.084548" />
  <E value="-0.00010384" />
  <Tmin units="K" value="147.43" />
  <Tmax units="K" value="298.15" />
  </LiquidHeatCapacityCp>
<IdealGasHeatCapacityCp name="Ideal gas heat capacity" units="J/kmol/K">
  <eqno value="16" />
  <A value="44709" />
  <B value="-441.89" />
  <C value="11.889" />
  <D value="0.00039371" />
  <E value="-1.2645E-07" />
  <Tmin units="K" value="150" />
  <Tmax units="K" value="1500" />
  </IdealGasHeatCapacityCp>
<SecondVirialCoefficient name="Second virial coefficient" units="m3/kmol">
  <eqno value="104" />
  <A value="0.11439" />
  <B value="-115.33" />
  <C value="-13.916" />
  <D value="565.16" />
  <E value="-1644.3" />
  <Tmin units="K" value="231.85" />
  <Tmax units="K" value="1896" />
  </SecondVirialCoefficient>
<LiquidViscosity name="Liquid viscosity" units="Pa.s">
  <eqno value="101" />
  <A value="-4.3451" />
  <B value="354.46" />
  <C value="-0.92921" />
  <D value="-0.0000006027" />
  <E value="2" />
  <Tmin units="K" value="147.43" />
  <Tmax units="K" value="400" />
  </LiquidViscosity>
<VaporViscosity name="Vapour viscosity" units="Pa.s">
  <eqno value="102" />
  <A value="0.0000027867" />
  <B value="0.37696" />
  <C value="663.32" />
  <D value="30.832" />
  <Tmin units="K" value="147.43" />
  <Tmax units="K" value="800" />
  </VaporViscosity>
<LiquidThermalConductivity name="Liquid thermal conductivity" units="W/m/K">
  <eqno value="16" />
  <A value="-0.032845" />
  <B value="13.956" />
  <C value="-1.5811" />
  <D value="-0.00025138" />
  <E value="-0.0000029965" />
  <Tmin units="K" value="147.43" />
  <Tmax units="K" value="373.15" />
  </LiquidThermalConductivity>
<VaporThermalConductivity name="Vapour thermal conductivity" units="W/m/K">
  <eqno value="102" />
  <A value="0.000036868" />
  <B value="1.1429" />
  <C value="-57.854" />
  <D value="83816" />
  <Tmin units="K" value="147.43" />
  <Tmax units="K" value="1000" />
  </VaporThermalConductivity>
<SurfaceTension name="Surface tension" units="N/m">
  <eqno value="16" />
  <A value="-0.018233" />
  <B value="58.318" />
  <C value="-3.4452" />
  <D value="0.0022742" />
  <E value="-0.0000088254" />
  <Tmin units="K" value="147.43" />
  <Tmax units="K" value="440" />
  </SurfaceTension>
<RPPHeatCapacityCp name="Ideal gas heat capacity (RPP)" units="J/kmol/K">
  <eqno value="100" />
  <A value="24902" />
  <B value="172.94" />
  <C value="0.12971" />
  <D value="-0.00028785" />
  <E value="1.2671E-07" />
  <Tmin units="K" value="50" />
  <Tmax units="K" value="1000" />
  </RPPHeatCapacityCp>
<AntoineVaporPressure name="Antoine" units="Pa">
  <eqno value="10" />
  <A value="21.172" />
  <B value="2381.3" />
  <C value="-34.36" />
  <Tmin units="K" value="264.46" />
  <Tmax units="K" value="393.8" />
  </AntoineVaporPressure>
<LiquidViscosityRPS name="Liquid viscosity (RPS)" units="Pa.s">
  <eqno value="13" />
  <A value="-3.5057" />
  <B value="-0.026061" />
  <C value="0.000030844" />
  <Tmin units="K" value="147.43" />
  <Tmax units="K" value="373.15" />
  </LiquidViscosityRPS>
<COSTALDVolume name="COSTLD characteristic volume (V*)" units="m3/kmol" value="0.230791" />
<DiameterLJ name="Lennard Jones diameter" units="m" value="5.516173E-10" />
<EnergyLJ name="Lennard Jones energy" units="K" value="231.3399" />
<FullerVolume name="Fuller et al. diffusion volume" units="_" value="77.46" />
<MatthiasCopemanC2 name="Mathias-Copeman C2" units="_" value="0" />
<Parachor name="Parachor" units="kg0.25.m3/s0.5/kmol" value="0.0299" />
<SpecificGravity name="Specific gravity" units="_" value="0.659288" />
<Charge name="Charge" units="_" value="0" />
<CostaldAcentricFactor name="SRK acentric factor" units="_" value="0.246864" />
<WilsonVolume name="Wilson volume" units="m3/kmol" value="0.0809511" />
<UniquacR name="UNIQUAC r" units="_" value="2.8675" />
<UniquacQ name="UNIQUAC q" units="_" value="2.476" />
<MatthiasCopemanC3 name="Mathias-Copeman C3" units="_" value="0" />
<ChaoSeaderAcentricFactor name="Chao-Seader acentric factor" units="_" value="0.246864" />
<ChaoSeaderSolubilityParameter name="Chao-Seader solubility parameter" units="J0.5/m1.5" value="16554" />
<ChaoSeaderLiquidVolume name="Chao-Seader liquid volume" units="m3/kmol" value="0.0809511" />
<UnifacVLE name="UNIFAC">
  <group id="1" value="1" />
  <group id="2" value="1" />
  <group id="66" value="1" />
  </UnifacVLE>
<Asog name="ASOG">
  <group id="1" value="1" />
  <group id="2" value="1" />
  <group id="53" value="1" />
  </Asog>
<Umr name="UMR">
  <group id="1" value="1" />
  <group id="2" value="1" />
  <group id="66" value="1" />
  </Umr>
<ModifiedUnifac name="Modified UNIFAC">
  <group id="1" value="1" />
  <group id="2" value="1" />
  <group id="8" value="1" />
  </ModifiedUnifac>
<CAS name="CAS number" value="107-00-6" />
<Smiles name="SMILES" value="CCC#C" />
</compound>

