<compound>
<LibraryIndex name="Index" value="28180" />
<CompoundID name="Name" value="hexadecanal" />
<StructureFormula name="Structure" value="CH3(CH2)14CHO" />
<Family name="Family" value="25" />
<CriticalTemperature name="Critical temperature" units="K" value="743.8943" />
<CriticalPressure name="Critical pressure" units="Pa" value="1394291" />
<CriticalVolume name="Critical volume" units="m3/kmol" value="0.93768" />
<CriticalCompressibility name="Critical compressibility factor" units="_" value="0.211379" />
<NormalBoilingPointTemperature name="Normal boiling point" units="K" value="574.8273" />
<NormalMeltingPointTemperature name="Melting point" units="K" value="312" />
<MolecularWeight name="Molecular weight" units="kg/kmol" value="240.4247" />
<LiquidVolumeAtNormalBoilingPoint name="Liquid molar volume at normal boiling point" units="m3/kmol" value="0.28801" />
<AcentricityFactor name="Acentric factor" units="_" value="0.877588" />
<HeatOfFormation name="IG heat of formation" units="J/kmol" value="-4.5915E+08" />
<GibbsEnergyOfFormation name="IG Gibbs energy of formation" units="J/kmol" value="-1.108798E+07" />
<AbsEntropy name="IG absolute entropy" units="J/kmol/K" value="795343.3" />
<HeatOfCombustion name="Standard net heat of combustion LHV" units="J/kmol" value="-9.713329E+09" />
<IdealGasHeatCapacityCp name="Ideal gas heat capacity" units="J/kmol/K">
  <eqno value="16" />
  <A value="156716.9" />
  <B value="-500" />
  <C value="13.88519" />
  <D value="0" />
  <E value="0" />
  <Tmin units="K" value="255" />
  <Tmax units="K" value="1500" />
  </IdealGasHeatCapacityCp>
<SurfaceTension name="Surface tension" units="N/m">
  <eqno value="116" />
  <A value="0" />
  <B value="0" />
  <C value="0" />
  <D value="0.0273883" />
  <E value="0.0273883" />
  <Tmin units="K" value="312" />
  <Tmax units="K" value="743.8943" />
  </SurfaceTension>
<AntoineVaporPressure name="Antoine" units="Pa">
  <eqno value="10" />
  <A value="21.10957" />
  <B value="4317.061" />
  <C value="-124.3583" />
  <Tmin units="K" value="309" />
  <Tmax units="K" value="743.8943" />
  </AntoineVaporPressure>
<FullerVolume name="Fuller et al. diffusion volume" units="_" value="334.43" />
<Parachor name="Parachor" units="kg0.25.m3/s0.5/kmol" value="0.12119" />
<SpecificGravity name="Specific gravity" units="_" value="0.83" />
<Charge name="Charge" units="_" value="0" />
<UniquacR name="UNIQUAC r" units="_" value="11.3407" />
<UniquacQ name="UNIQUAC q" units="_" value="9.356" />
<UnifacVLE name="UNIFAC">
  <group id="1" value="1" />
  <group id="2" value="14" />
  <group id="21" value="1" />
  </UnifacVLE>
<UnifacLLE name="UNIFAC-LLE">
  <group id="1" value="1" />
  <group id="2" value="14" />
  <group id="21" value="1" />
  </UnifacLLE>
<Asog name="ASOG">
  <group id="1" value="1" />
  <group id="2" value="14" />
  <group id="20" value="1" />
  </Asog>
<Umr name="UMR">
  <group id="1" value="1" />
  <group id="2" value="14" />
  <group id="21" value="1" />
  </Umr>
<ModifiedUnifac name="Modified UNIFAC">
  <group id="1" value="1" />
  <group id="2" value="14" />
  <group id="20" value="1" />
  </ModifiedUnifac>
<CAS name="CAS number" value="629-80-1" />
<Smiles name="SMILES" value="CCCCCCCCCCCCCCCC=O" />
</compound>

