<compound>
<LibraryIndex name="Index" value="1805" />
<CompoundID name="Name" value="isobutyl mercaptan" />
<StructureFormula name="Structure" value="(CH3)2CHCH2SH" />
<Family name="Family" value="41" />
<CriticalTemperature name="Critical temperature" units="K" value="557" />
<CriticalPressure name="Critical pressure" units="Pa" value="3900000" />
<CriticalVolume name="Critical volume" units="m3/kmol" value="0.307" />
<CriticalCompressibility name="Critical compressibility factor" units="_" value="0.268" />
<NormalBoilingPointTemperature name="Normal boiling point" units="K" value="361.64" />
<NormalMeltingPointTemperature name="Melting point" units="K" value="128.31" />
<TriplePointTemperature name="Triple point temperature" units="K" value="128.3" />
<TriplePointPressure name="Triple point pressure" units="Pa" value="4.75023E-06" />
<MolecularWeight name="Molecular weight" units="kg/kmol" value="90.18719" />
<LiquidVolumeAtNormalBoilingPoint name="Liquid molar volume at normal boiling point" units="m3/kmol" value="0.108751" />
<AcentricityFactor name="Acentric factor" units="_" value="0.25" />
<RadiusOfGyration name="Radius of gyration" units="m" value="3.455E-10" />
<SolubilityParameter name="Solubility parameter" units="J0.5/m1.5" value="17240" />
<DipoleMoment name="Dipole moment" units="Coulomb.m" value="5.1E-30" />
<VanDerWaalsVolume name="Van der Waals volume" units="m3/kmol" value="0.05916" />
<VanDerWaalsArea name="Van der Waals area" units="m2/kmol" value="8.4528E+08" />
<HeatOfFormation name="IG heat of formation" units="J/kmol" value="-9.694E+07" />
<GibbsEnergyOfFormation name="IG Gibbs energy of formation" units="J/kmol" value="6100000" />
<AbsEntropy name="IG absolute entropy" units="J/kmol/K" value="362840" />
<HeatOfFusionAtMeltingPoint name="Heat of fusion at melting point" units="J/kmol" value="4982300" />
<MatthiasCopemanC1 name="Mathias-Copeman C1" units="_" value="0.91991" />
<HeatOfCombustion name="Standard net heat of combustion LHV" units="J/kmol" value="-2.949E+09" />
<SolidDensity name="Solid density" units="kmol/m3">
  <eqno value="2" />
  <A value="13.835" />
  <B value="-0.012799" />
  <C value="0" />
  <D value="0" />
  <E value="0" />
  <Tmin units="K" value="51.32" />
  <Tmax units="K" value="128.31" />
  </SolidDensity>
<LiquidDensity name="Liquid density" units="kmol/m3">
  <eqno value="105" />
  <A value="0.97433" />
  <B value="0.28543" />
  <C value="557" />
  <D value="0.30684" />
  <Tmin units="K" value="128.31" />
  <Tmax units="K" value="536.33" />
  </LiquidDensity>
<VaporPressure name="Vapour pressure" units="Pa">
  <eqno value="101" />
  <A value="94.36165" />
  <B value="-7005.04" />
  <C value="-10.97315" />
  <D value="8.971409E-06" />
  <E value="2" />
  <Tmin units="K" value="128.31" />
  <Tmax units="K" value="559" />
  </VaporPressure>
<HeatOfVaporization name="Heat of vaporization" units="J/kmol">
  <eqno value="106" />
  <A value="4.696233E+07" />
  <B value="0.280539" />
  <C value="0.393074" />
  <D value="-0.340509" />
  <E value="0.0160184" />
  <Tmin units="K" value="128.31" />
  <Tmax units="K" value="536.33" />
  </HeatOfVaporization>
<SolidHeatCapacityCp name="Solid heat capacity" units="J/kmol/K">
  <eqno value="100" />
  <A value="-14787" />
  <B value="1720.7" />
  <C value="-15.027" />
  <D value="0.082237" />
  <E value="-0.00013773" />
  <Tmin units="K" value="12.41" />
  <Tmax units="K" value="128.31" />
  </SolidHeatCapacityCp>
<LiquidHeatCapacityCp name="Liquid heat capacity" units="J/kmol/K">
  <eqno value="16" />
  <A value="113680" />
  <B value="117.72" />
  <C value="9.1822" />
  <D value="0.0046628" />
  <E value="2.8876E-09" />
  <Tmin units="K" value="128.31" />
  <Tmax units="K" value="470" />
  </LiquidHeatCapacityCp>
<IdealGasHeatCapacityCp name="Ideal gas heat capacity" units="J/kmol/K">
  <eqno value="16" />
  <A value="83649" />
  <B value="-694.35" />
  <C value="12.849" />
  <D value="-0.00014111" />
  <E value="3.1023E-08" />
  <Tmin units="K" value="200" />
  <Tmax units="K" value="1500" />
  </IdealGasHeatCapacityCp>
<SecondVirialCoefficient name="Second virial coefficient" units="m3/kmol">
  <eqno value="104" />
  <A value="0.19029" />
  <B value="-182.14" />
  <C value="-34.378" />
  <D value="-7197.6" />
  <E value="12309" />
  <Tmin units="K" value="271.5" />
  <Tmax units="K" value="1629" />
  </SecondVirialCoefficient>
<LiquidViscosity name="Liquid viscosity" units="Pa.s">
  <eqno value="101" />
  <A value="-10.885" />
  <B value="935.58" />
  <C value="0.015703" />
  <D value="-1.4837E-10" />
  <E value="2" />
  <Tmin units="K" value="128.31" />
  <Tmax units="K" value="393" />
  </LiquidViscosity>
<VaporViscosity name="Vapour viscosity" units="Pa.s">
  <eqno value="102" />
  <A value="8.5691E-08" />
  <B value="0.8336" />
  <C value="119.56" />
  <D value="-8012" />
  <Tmin units="K" value="128.31" />
  <Tmax units="K" value="1000" />
  </VaporViscosity>
<LiquidThermalConductivity name="Liquid thermal conductivity" units="W/m/K">
  <eqno value="16" />
  <A value="-0.03575" />
  <B value="3.5477" />
  <C value="-1.4952" />
  <D value="-0.00050318" />
  <E value="-0.0000017356" />
  <Tmin units="K" value="128.31" />
  <Tmax units="K" value="361.64" />
  </LiquidThermalConductivity>
<VaporThermalConductivity name="Vapour thermal conductivity" units="W/m/K">
  <eqno value="102" />
  <A value="0.00014532" />
  <B value="0.98673" />
  <C value="557.5" />
  <D value="22542" />
  <Tmin units="K" value="128.3" />
  <Tmax units="K" value="1000" />
  </VaporThermalConductivity>
<SurfaceTension name="Surface tension" units="N/m">
  <eqno value="16" />
  <A value="-0.019478" />
  <B value="11.024" />
  <C value="-2.7575" />
  <D value="-0.00056011" />
  <E value="-0.0000029228" />
  <Tmin units="K" value="128.31" />
  <Tmax units="K" value="536.33" />
  </SurfaceTension>
<RPPHeatCapacityCp name="Ideal gas heat capacity (RPP)" units="J/kmol/K">
  <eqno value="4" />
  <A value="18204" />
  <B value="396.93" />
  <C value="-0.19558" />
  <D value="0.000034612" />
  <Tmin units="K" value="200" />
  <Tmax units="K" value="1500" />
  </RPPHeatCapacityCp>
<AntoineVaporPressure name="Antoine" units="Pa">
  <eqno value="10" />
  <A value="20.932" />
  <B value="2967.3" />
  <C value="-46.193" />
  <Tmin units="K" value="338.12" />
  <Tmax units="K" value="500" />
  </AntoineVaporPressure>
<LiquidViscosityRPS name="Liquid viscosity (RPS)" units="Pa.s">
  <eqno value="12" />
  <A value="-2.0171" />
  <B value="-0.018678" />
  <Tmin units="K" value="128.31" />
  <Tmax units="K" value="361.64" />
  </LiquidViscosityRPS>
<COSTALDVolume name="COSTLD characteristic volume (V*)" units="m3/kmol" value="0.315992" />
<DiameterLJ name="Lennard Jones diameter" units="m" value="6.112178E-10" />
<EnergyLJ name="Lennard Jones energy" units="K" value="317.7267" />
<RacketParameter name="Rackett parameter" units="_" value="0.268" />
<FullerVolume name="Fuller et al. diffusion volume" units="_" value="101.556" />
<MatthiasCopemanC2 name="Mathias-Copeman C2" units="_" value="-0.55718" />
<Parachor name="Parachor" units="kg0.25.m3/s0.5/kmol" value="0.0427712" />
<SpecificGravity name="Specific gravity" units="_" value="0.83847" />
<Charge name="Charge" units="_" value="0" />
<CostaldAcentricFactor name="SRK acentric factor" units="_" value="0.25" />
<WilsonVolume name="Wilson volume" units="m3/kmol" value="0.108751" />
<UniquacR name="UNIQUAC r" units="_" value="3.9001" />
<UniquacQ name="UNIQUAC q" units="_" value="3.292" />
<MatthiasCopemanC3 name="Mathias-Copeman C3" units="_" value="1.2753" />
<ChaoSeaderAcentricFactor name="Chao-Seader acentric factor" units="_" value="0.25" />
<ChaoSeaderSolubilityParameter name="Chao-Seader solubility parameter" units="J0.5/m1.5" value="17240" />
<ChaoSeaderLiquidVolume name="Chao-Seader liquid volume" units="m3/kmol" value="0.108751" />
<UnifacVLE name="UNIFAC">
  <group id="61" value="1" />
  <group id="3" value="1" />
  <group id="1" value="2" />
  </UnifacVLE>
<Asog name="ASOG">
  <group id="1" value="2" />
  <group id="2" value="1" />
  <group id="3" value="1" />
  <group id="55" value="1" />
  </Asog>
<GCmethod name="PPR78">
  <group id="1" value="2" />
  <group id="3" value="1" />
  <group id="2" value="1" />
  <group id="15" value="1" />
  </GCmethod>
<Umr name="UMR">
  <group id="61" value="1" />
  <group id="3" value="1" />
  <group id="1" value="2" />
  </Umr>
<ModifiedUnifac name="Modified UNIFAC">
  <group id="1" value="2" />
  <group id="3" value="1" />
  <group id="60" value="1" />
  </ModifiedUnifac>
<CAS name="CAS number" value="513-44-0" />
<Smiles name="SMILES" value="CC(C)CS" />
</compound>

