<compound>
<LibraryIndex name="Index" value="1801" />
<CompoundID name="Name" value="methyl mercaptan" />
<StructureFormula name="Structure" value="CH3SH" />
<Family name="Family" value="41" />
<CriticalTemperature name="Critical temperature" units="K" value="470" />
<CriticalPressure name="Critical pressure" units="Pa" value="7230000" />
<CriticalVolume name="Critical volume" units="m3/kmol" value="0.145" />
<CriticalCompressibility name="Critical compressibility factor" units="_" value="0.268" />
<NormalBoilingPointTemperature name="Normal boiling point" units="K" value="279.11" />
<NormalMeltingPointTemperature name="Melting point" units="K" value="150.18" />
<TriplePointTemperature name="Triple point temperature" units="K" value="150.18" />
<TriplePointPressure name="Triple point pressure" units="Pa" value="3.14785" />
<MolecularWeight name="Molecular weight" units="kg/kmol" value="48.10746" />
<LiquidVolumeAtNormalBoilingPoint name="Liquid molar volume at normal boiling point" units="m3/kmol" value="0.05552" />
<AcentricityFactor name="Acentric factor" units="_" value="0.15" />
<RadiusOfGyration name="Radius of gyration" units="m" value="1.606E-10" />
<SolubilityParameter name="Solubility parameter" units="J0.5/m1.5" value="19470" />
<DipoleMoment name="Dipole moment" units="Coulomb.m" value="5.07E-30" />
<VanDerWaalsVolume name="Van der Waals volume" units="m3/kmol" value="0.02848" />
<VanDerWaalsArea name="Van der Waals area" units="m2/kmol" value="4.39E+08" />
<HeatOfFormation name="IG heat of formation" units="J/kmol" value="-2.26E+07" />
<GibbsEnergyOfFormation name="IG Gibbs energy of formation" units="J/kmol" value="-9920000" />
<AbsEntropy name="IG absolute entropy" units="J/kmol/K" value="255000" />
<HeatOfFusionAtMeltingPoint name="Heat of fusion at melting point" units="J/kmol" value="5904000" />
<MatthiasCopemanC1 name="Mathias-Copeman C1" units="_" value="0.89544" />
<HeatOfCombustion name="Standard net heat of combustion LHV" units="J/kmol" value="-1.1517E+09" />
<SolidDensity name="Solid density" units="kmol/m3">
  <eqno value="2" />
  <A value="27.366" />
  <B value="-0.020311" />
  <C value="0" />
  <D value="0" />
  <E value="0" />
  <Tmin units="K" value="60.07" />
  <Tmax units="K" value="150.18" />
  </SolidDensity>
<LiquidDensity name="Liquid density" units="kmol/m3">
  <eqno value="105" />
  <A value="1.954" />
  <B value="0.28171" />
  <C value="470" />
  <D value="0.28737" />
  <Tmin units="K" value="150.18" />
  <Tmax units="K" value="453.12" />
  </LiquidDensity>
<VaporPressure name="Vapour pressure" units="Pa">
  <eqno value="101" />
  <A value="115.1598" />
  <B value="-6300.053" />
  <C value="-14.66478" />
  <D value="0.0000195265" />
  <E value="2" />
  <Tmin units="K" value="150.18" />
  <Tmax units="K" value="469.95" />
  </VaporPressure>
<HeatOfVaporization name="Heat of vaporization" units="J/kmol">
  <eqno value="106" />
  <A value="3.221375E+07" />
  <B value="-0.00310105" />
  <C value="0.657759" />
  <D value="-0.0249162" />
  <E value="-0.340052" />
  <Tmin units="K" value="150.18" />
  <Tmax units="K" value="469.95" />
  </HeatOfVaporization>
<SolidHeatCapacityCp name="Solid heat capacity" units="J/kmol/K">
  <eqno value="100" />
  <A value="-10842" />
  <B value="883.79" />
  <C value="1.0741" />
  <D value="-0.071254" />
  <E value="0.00032202" />
  <Tmin units="K" value="14.96" />
  <Tmax units="K" value="150" />
  </SolidHeatCapacityCp>
<LiquidHeatCapacityCp name="Liquid heat capacity" units="J/kmol/K">
  <eqno value="16" />
  <A value="87318" />
  <B value="-59222" />
  <C value="550.29" />
  <D value="-1.6599" />
  <E value="0.001702" />
  <Tmin units="K" value="150.18" />
  <Tmax units="K" value="298.15" />
  </LiquidHeatCapacityCp>
<IdealGasHeatCapacityCp name="Ideal gas heat capacity" units="J/kmol/K">
  <eqno value="16" />
  <A value="38535" />
  <B value="-588.35" />
  <C value="11.232" />
  <D value="0.00044782" />
  <E value="-1.6363E-07" />
  <Tmin units="K" value="100" />
  <Tmax units="K" value="1500" />
  </IdealGasHeatCapacityCp>
<SecondVirialCoefficient name="Second virial coefficient" units="m3/kmol">
  <eqno value="104" />
  <A value="0.086994" />
  <B value="-107.34" />
  <C value="-7.9703" />
  <D value="-15.158" />
  <E value="-109.37" />
  <Tmin units="K" value="235" />
  <Tmax units="K" value="1880" />
  </SecondVirialCoefficient>
<LiquidViscosity name="Liquid viscosity" units="Pa.s">
  <eqno value="101" />
  <A value="-8.947" />
  <B value="607.01" />
  <C value="-0.26447" />
  <D value="0.0000011807" />
  <E value="2" />
  <Tmin units="K" value="150.18" />
  <Tmax units="K" value="373" />
  </LiquidViscosity>
<VaporViscosity name="Vapour viscosity" units="Pa.s">
  <eqno value="102" />
  <A value="1.9969E-07" />
  <B value="0.74097" />
  <C value="130.67" />
  <D value="-839.04" />
  <Tmin units="K" value="150.18" />
  <Tmax units="K" value="1000" />
  </VaporViscosity>
<LiquidThermalConductivity name="Liquid thermal conductivity" units="W/m/K">
  <eqno value="16" />
  <A value="-0.011242" />
  <B value="-11.424" />
  <C value="-1.1701" />
  <D value="-0.0017729" />
  <E value="-0.0000012043" />
  <Tmin units="K" value="150.18" />
  <Tmax units="K" value="279.11" />
  </LiquidThermalConductivity>
<VaporThermalConductivity name="Vapour thermal conductivity" units="W/m/K">
  <eqno value="102" />
  <A value="0.000024689" />
  <B value="1.1702" />
  <C value="4.7184" />
  <D value="35466" />
  <Tmin units="K" value="150.18" />
  <Tmax units="K" value="1000" />
  </VaporThermalConductivity>
<SurfaceTension name="Surface tension" units="N/m">
  <eqno value="16" />
  <A value="-0.01346" />
  <B value="41.423" />
  <C value="-3.0112" />
  <D value="0.0013607" />
  <E value="-0.000009249" />
  <Tmin units="K" value="150.18" />
  <Tmax units="K" value="469.95" />
  </SurfaceTension>
<RPPHeatCapacityCp name="Ideal gas heat capacity (RPP)" units="J/kmol/K">
  <eqno value="100" />
  <A value="34247" />
  <B value="10.917" />
  <C value="0.21543" />
  <D value="-0.00026706" />
  <E value="1.0044E-07" />
  <Tmin units="K" value="50" />
  <Tmax units="K" value="1000" />
  </RPPHeatCapacityCp>
<AntoineVaporPressure name="Antoine" units="Pa">
  <eqno value="10" />
  <A value="21.379" />
  <B value="2532.6" />
  <C value="-21.919" />
  <Tmin units="K" value="283.15" />
  <Tmax units="K" value="419.46" />
  </AntoineVaporPressure>
<LiquidViscosityRPS name="Liquid viscosity (RPS)" units="Pa.s">
  <eqno value="12" />
  <A value="-4.1431" />
  <B value="-0.015082" />
  <Tmin units="K" value="150.18" />
  <Tmax units="K" value="279.11" />
  </LiquidViscosityRPS>
<COSTALDVolume name="COSTLD characteristic volume (V*)" units="m3/kmol" value="0.150999" />
<DiameterLJ name="Lennard Jones diameter" units="m" value="4.759988E-10" />
<EnergyLJ name="Lennard Jones energy" units="K" value="268.0997" />
<RacketParameter name="Rackett parameter" units="_" value="0.268" />
<FullerVolume name="Fuller et al. diffusion volume" units="_" value="48.04" />
<MatthiasCopemanC2 name="Mathias-Copeman C2" units="_" value="-1.4449" />
<Parachor name="Parachor" units="kg0.25.m3/s0.5/kmol" value="0.0220648" />
<SpecificGravity name="Specific gravity" units="_" value="0.863192" />
<UniquacR name="UNIQUAC r" units="_" value="1.877" />
<UniquacQ name="UNIQUAC q" units="_" value="1.676" />
<ApiSrkS1 name="API-SRK s1" units="_" value="0.529899" />
<ApiSrkS2 name="API-SRK s2" units="_" value="0.141244" />
<MatthiasCopemanC3 name="Mathias-Copeman C3" units="_" value="2.7511" />
<UnifacVLE name="UNIFAC">
  <group id="60" value="1" />
  </UnifacVLE>
<Asog name="ASOG">
  <group id="1" value="1" />
  <group id="55" value="1" />
  </Asog>
<GCmethod name="PPR78">
  <group id="1" value="1" />
  <group id="15" value="1" />
  </GCmethod>
<Umr name="UMR">
  <group id="60" value="1" />
  </Umr>
<ModifiedUnifac name="Modified UNIFAC">
  <group id="59" value="1" />
  </ModifiedUnifac>
<CAS name="CAS number" value="74-93-1" />
<Smiles name="SMILES" value="CS" />
</compound>

