<compound>
<LibraryIndex name="Index" value="138" />
<CompoundID name="Name" value="methylcyclohexane" />
<StructureFormula name="Structure" value="(C6H11)CH3" />
<Family name="Family" value="7" />
<CriticalTemperature name="Critical temperature" units="K" value="572.19" />
<CriticalPressure name="Critical pressure" units="Pa" value="3471000" />
<CriticalVolume name="Critical volume" units="m3/kmol" value="0.368" />
<CriticalCompressibility name="Critical compressibility factor" units="_" value="0.268" />
<NormalBoilingPointTemperature name="Normal boiling point" units="K" value="374.09" />
<NormalMeltingPointTemperature name="Melting point" units="K" value="146.58" />
<TriplePointTemperature name="Triple point temperature" units="K" value="146.58" />
<TriplePointPressure name="Triple point pressure" units="Pa" value="0.000152251" />
<MolecularWeight name="Molecular weight" units="kg/kmol" value="98.18607" />
<LiquidVolumeAtNormalBoilingPoint name="Liquid molar volume at normal boiling point" units="m3/kmol" value="0.12835" />
<AcentricityFactor name="Acentric factor" units="_" value="0.235" />
<RadiusOfGyration name="Radius of gyration" units="m" value="3.643E-10" />
<SolubilityParameter name="Solubility parameter" units="J0.5/m1.5" value="16060" />
<DipoleMoment name="Dipole moment" units="Coulomb.m" value="0" />
<VanDerWaalsVolume name="Van der Waals volume" units="m3/kmol" value="0.07046" />
<VanDerWaalsArea name="Van der Waals area" units="m2/kmol" value="8.87E+08" />
<HeatOfFormation name="IG heat of formation" units="J/kmol" value="-1.548E+08" />
<GibbsEnergyOfFormation name="IG Gibbs energy of formation" units="J/kmol" value="2.733E+07" />
<AbsEntropy name="IG absolute entropy" units="J/kmol/K" value="343300" />
<HeatOfFusionAtMeltingPoint name="Heat of fusion at melting point" units="J/kmol" value="6751000" />
<MatthiasCopemanC1 name="Mathias-Copeman C1" units="_" value="0.93" />
<HeatOfCombustion name="Standard net heat of combustion LHV" units="J/kmol" value="-4.25714E+09" />
<SolidDensity name="Solid density" units="kmol/m3">
  <eqno value="2" />
  <A value="11.429" />
  <B value="-0.0085395" />
  <Tmin units="K" value="58.63" />
  <Tmax units="K" value="146.58" />
  </SolidDensity>
<LiquidDensity name="Liquid density" units="kmol/m3">
  <eqno value="105" />
  <A value="0.54994" />
  <B value="0.23476" />
  <C value="572.19" />
  <D value="0.25237" />
  <Tmin units="K" value="146.58" />
  <Tmax units="K" value="572.1" />
  </LiquidDensity>
<VaporPressure name="Vapour pressure" units="Pa">
  <eqno value="101" />
  <A value="84.02524" />
  <B value="-6720.084" />
  <C value="-9.367446" />
  <D value="6.892527E-06" />
  <E value="2" />
  <Tmin units="K" value="146.58" />
  <Tmax units="K" value="572.1" />
  </VaporPressure>
<HeatOfVaporization name="Heat of vaporization" units="J/kmol">
  <eqno value="106" />
  <A value="5.3741E+07" />
  <B value="0.65698" />
  <C value="0.0050875" />
  <D value="-0.53082" />
  <E value="0.29149" />
  <Tmin units="K" value="146.58" />
  <Tmax units="K" value="572.1" />
  </HeatOfVaporization>
<SolidHeatCapacityCp name="Solid heat capacity" units="J/kmol/K">
  <eqno value="100" />
  <A value="-13069" />
  <B value="1384.8" />
  <C value="-9.1718" />
  <D value="0.036062" />
  <E value="-0.000031442" />
  <Tmin units="K" value="12" />
  <Tmax units="K" value="146.58" />
  </SolidHeatCapacityCp>
<LiquidHeatCapacityCp name="Liquid heat capacity" units="J/kmol/K">
  <eqno value="16" />
  <A value="121540" />
  <B value="-7.0302" />
  <C value="8.197" />
  <D value="0.012761" />
  <E value="-0.000010388" />
  <Tmin units="K" value="146.58" />
  <Tmax units="K" value="320" />
  </LiquidHeatCapacityCp>
<IdealGasHeatCapacityCp name="Ideal gas heat capacity" units="J/kmol/K">
  <eqno value="16" />
  <A value="82902" />
  <B value="-804.58" />
  <C value="13.697" />
  <D value="-0.00042977" />
  <E value="1.1051E-07" />
  <Tmin units="K" value="200" />
  <Tmax units="K" value="1500" />
  </IdealGasHeatCapacityCp>
<SecondVirialCoefficient name="Second virial coefficient" units="m3/kmol">
  <eqno value="104" />
  <A value="0.20875" />
  <B value="-247.9" />
  <C value="-33.881" />
  <D value="-2750.8" />
  <E value="4328.8" />
  <Tmin units="K" value="286" />
  <Tmax units="K" value="1828" />
  </SecondVirialCoefficient>
<LiquidViscosity name="Liquid viscosity" units="Pa.s">
  <eqno value="101" />
  <A value="-11.411" />
  <B value="1214.3" />
  <C value="0.0090457" />
  <D value="-0.0000000327" />
  <E value="2" />
  <Tmin units="K" value="146.58" />
  <Tmax units="K" value="457.68" />
  </LiquidViscosity>
<VaporViscosity name="Vapour viscosity" units="Pa.s">
  <eqno value="102" />
  <A value="6.5256E-07" />
  <B value="0.52942" />
  <C value="310.39" />
  <D value="23.825" />
  <Tmin units="K" value="146.58" />
  <Tmax units="K" value="1000" />
  </VaporViscosity>
<LiquidThermalConductivity name="Liquid thermal conductivity" units="W/m/K">
  <eqno value="16" />
  <A value="0.035771" />
  <B value="-249.64" />
  <C value="0.10904" />
  <D value="-0.0066567" />
  <E value="0.0000013937" />
  <Tmin units="K" value="273.15" />
  <Tmax units="K" value="374.08" />
  </LiquidThermalConductivity>
<VaporThermalConductivity name="Vapour thermal conductivity" units="W/m/K">
  <eqno value="102" />
  <A value="0.000074754" />
  <B value="1.119" />
  <C value="613.15" />
  <D value="22882" />
  <Tmin units="K" value="146.58" />
  <Tmax units="K" value="1000" />
  </VaporThermalConductivity>
<SurfaceTension name="Surface tension" units="N/m">
  <eqno value="16" />
  <A value="-0.0071052" />
  <B value="37.192" />
  <C value="-3.2268" />
  <D value="0.0007377" />
  <E value="-0.0000068537" />
  <Tmin units="K" value="146.58" />
  <Tmax units="K" value="572.1" />
  </SurfaceTension>
<RPPHeatCapacityCp name="Ideal gas heat capacity (RPP)" units="J/kmol/K">
  <eqno value="100" />
  <A value="26174" />
  <B value="153.3" />
  <C value="1.1328" />
  <D value="-0.0015625" />
  <E value="6.1228E-07" />
  <Tmin units="K" value="50" />
  <Tmax units="K" value="1000" />
  </RPPHeatCapacityCp>
<AntoineVaporPressure name="Antoine" units="Pa">
  <eqno value="10" />
  <A value="20.844" />
  <B value="3088.6" />
  <C value="-42.601" />
  <Tmin units="K" value="344.14" />
  <Tmax units="K" value="510.93" />
  </AntoineVaporPressure>
<LiquidViscosityRPS name="Liquid viscosity (RPS)" units="Pa.s">
  <eqno value="13" />
  <A value="2.6248" />
  <B value="-0.050338" />
  <C value="0.000057219" />
  <Tmin units="K" value="146.58" />
  <Tmax units="K" value="457.68" />
  </LiquidViscosityRPS>
<COSTALDVolume name="COSTLD characteristic volume (V*)" units="m3/kmol" value="0.3709" />
<DiameterLJ name="Lennard Jones diameter" units="m" value="6.492807E-10" />
<EnergyLJ name="Lennard Jones energy" units="K" value="326.3914" />
<RacketParameter name="Rackett parameter" units="_" value="0.2699" />
<FullerVolume name="Fuller et al. diffusion volume" units="_" value="143.64" />
<MatthiasCopemanC2 name="Mathias-Copeman C2" units="_" value="-0.82199" />
<Parachor name="Parachor" units="kg0.25.m3/s0.5/kmol" value="0.0497" />
<SpecificGravity name="Specific gravity" units="_" value="0.772427" />
<Charge name="Charge" units="_" value="0" />
<CostaldAcentricFactor name="SRK acentric factor" units="_" value="0.2371" />
<WilsonVolume name="Wilson volume" units="m3/kmol" value="0.12834" />
<UniquacR name="UNIQUAC r" units="_" value="4.72" />
<UniquacQ name="UNIQUAC q" units="_" value="3.776" />
<UniquacQP name="UNIQUAC q'" units="_" value="3.776" />
<ApiSrkS2 name="API-SRK s2" units="_" value="-0.000172" />
<MatthiasCopemanC3 name="Mathias-Copeman C3" units="_" value="1.8218" />
<ChaoSeaderAcentricFactor name="Chao-Seader acentric factor" units="_" value="0.2421" />
<ChaoSeaderSolubilityParameter name="Chao-Seader solubility parameter" units="J0.5/m1.5" value="16016.26" />
<ChaoSeaderLiquidVolume name="Chao-Seader liquid volume" units="m3/kmol" value="0.1283" />
<UnifacVLE name="UNIFAC">
  <group id="1" value="1" />
  <group id="2" value="5" />
  <group id="3" value="1" />
  </UnifacVLE>
<UnifacLLE name="UNIFAC-LLE">
  <group id="1" value="1" />
  <group id="2" value="5" />
  <group id="3" value="1" />
  </UnifacLLE>
<Asog name="ASOG">
  <group id="1" value="1" />
  <group id="2" value="5" />
  <group id="3" value="1" />
  </Asog>
<GCmethod name="PPR78">
  <group id="1" value="1" />
  <group id="2" value="5" />
  <group id="3" value="1" />
  </GCmethod>
<Umr name="UMR">
  <group id="1" value="1" />
  <group id="2" value="5" />
  <group id="3" value="1" />
  </Umr>
<ModifiedUnifac name="Modified UNIFAC">
  <group id="1" value="1" />
  <group id="78" value="5" />
  <group id="79" value="1" />
  </ModifiedUnifac>
<CAS name="CAS number" value="108-87-2" />
<Smiles name="SMILES" value="C1CCCCC1(C)" />
</compound>

