<compound>
<LibraryIndex name="Index" value="1571" />
<CompoundID name="Name" value="monochlorobenzene" />
<StructureFormula name="Structure" value="C6H5Cl" />
<Family name="Family" value="29" />
<CriticalTemperature name="Critical temperature" units="K" value="632.4" />
<CriticalPressure name="Critical pressure" units="Pa" value="4520000" />
<CriticalVolume name="Critical volume" units="m3/kmol" value="0.308" />
<CriticalCompressibility name="Critical compressibility factor" units="_" value="0.265" />
<NormalBoilingPointTemperature name="Normal boiling point" units="K" value="404.91" />
<NormalMeltingPointTemperature name="Melting point" units="K" value="227.95" />
<TriplePointTemperature name="Triple point temperature" units="K" value="227.95" />
<TriplePointPressure name="Triple point pressure" units="Pa" value="8.4456" />
<MolecularWeight name="Molecular weight" units="kg/kmol" value="112.5569" />
<LiquidVolumeAtNormalBoilingPoint name="Liquid molar volume at normal boiling point" units="m3/kmol" value="0.10222" />
<AcentricityFactor name="Acentric factor" units="_" value="0.251" />
<RadiusOfGyration name="Radius of gyration" units="m" value="3.603E-10" />
<SolubilityParameter name="Solubility parameter" units="J0.5/m1.5" value="19350" />
<DipoleMoment name="Dipole moment" units="Coulomb.m" value="5.64E-30" />
<VanDerWaalsVolume name="Van der Waals volume" units="m3/kmol" value="0.05784" />
<VanDerWaalsArea name="Van der Waals area" units="m2/kmol" value="7.14E+08" />
<HeatOfFormation name="IG heat of formation" units="J/kmol" value="5.109E+07" />
<GibbsEnergyOfFormation name="IG Gibbs energy of formation" units="J/kmol" value="9.829E+07" />
<AbsEntropy name="IG absolute entropy" units="J/kmol/K" value="314030" />
<HeatOfFusionAtMeltingPoint name="Heat of fusion at melting point" units="J/kmol" value="9556000" />
<MatthiasCopemanC1 name="Mathias-Copeman C1" units="_" value="0.81651" />
<HeatOfCombustion name="Standard net heat of combustion LHV" units="J/kmol" value="-2.976E+09" />
<SolidDensity name="Solid density" units="kmol/m3">
  <eqno value="2" />
  <A value="13.164" />
  <B value="-0.0063358" />
  <Tmin units="K" value="91.18" />
  <Tmax units="K" value="227.95" />
  </SolidDensity>
<LiquidDensity name="Liquid density" units="kmol/m3">
  <eqno value="105" />
  <A value="0.78287" />
  <B value="0.25464" />
  <C value="632.4" />
  <D value="0.26342" />
  <Tmin units="K" value="227.95" />
  <Tmax units="K" value="632.35" />
  </LiquidDensity>
<VaporPressure name="Vapour pressure" units="Pa">
  <eqno value="101" />
  <A value="51.41334" />
  <B value="-6020.539" />
  <C value="-4.204143" />
  <D value="1.293848E-06" />
  <E value="2" />
  <Tmin units="K" value="227.95" />
  <Tmax units="K" value="632.35" />
  </VaporPressure>
<HeatOfVaporization name="Heat of vaporization" units="J/kmol">
  <eqno value="106" />
  <A value="4.9039E+07" />
  <B value="0.24473" />
  <C value="-0.048652" />
  <D value="0.40537" />
  <E value="-0.25012" />
  <Tmin units="K" value="227.95" />
  <Tmax units="K" value="632.35" />
  </HeatOfVaporization>
<SolidHeatCapacityCp name="Solid heat capacity" units="J/kmol/K">
  <eqno value="100" />
  <A value="-15722" />
  <B value="756.66" />
  <C value="1.4275" />
  <D value="-0.025177" />
  <E value="0.000067134" />
  <Tmin units="K" value="89.99" />
  <Tmax units="K" value="227.95" />
  </SolidHeatCapacityCp>
<LiquidHeatCapacityCp name="Liquid heat capacity" units="J/kmol/K">
  <eqno value="16" />
  <A value="139150" />
  <B value="-333.42" />
  <C value="10.906" />
  <D value="-0.018036" />
  <E value="0.000054846" />
  <Tmin units="K" value="227.95" />
  <Tmax units="K" value="360" />
  </LiquidHeatCapacityCp>
<IdealGasHeatCapacityCp name="Ideal gas heat capacity" units="J/kmol/K">
  <eqno value="16" />
  <A value="74680" />
  <B value="-1001.5" />
  <C value="13.827" />
  <D value="-0.0014014" />
  <E value="4.6413E-07" />
  <Tmin units="K" value="200" />
  <Tmax units="K" value="1500" />
  </IdealGasHeatCapacityCp>
<SecondVirialCoefficient name="Second virial coefficient" units="m3/kmol">
  <eqno value="104" />
  <A value="0.19009" />
  <B value="-259.98" />
  <C value="-46.648" />
  <D value="20404" />
  <E value="-83538" />
  <Tmin units="K" value="316.18" />
  <Tmax units="K" value="2000" />
  </SecondVirialCoefficient>
<LiquidViscosity name="Liquid viscosity" units="Pa.s">
  <eqno value="101" />
  <A value="0.029483" />
  <B value="556.49" />
  <C value="-1.5963" />
  <D value="1.2171E-07" />
  <E value="2" />
  <Tmin units="K" value="250" />
  <Tmax units="K" value="573" />
  </LiquidViscosity>
<VaporViscosity name="Vapour viscosity" units="Pa.s">
  <eqno value="102" />
  <A value="1.1217E-07" />
  <B value="0.79382" />
  <C value="109.37" />
  <D value="1134.4" />
  <Tmin units="K" value="227.95" />
  <Tmax units="K" value="1000" />
  </VaporViscosity>
<LiquidThermalConductivity name="Liquid thermal conductivity" units="W/m/K">
  <eqno value="16" />
  <A value="0.083427" />
  <B value="-157.94" />
  <C value="-0.89724" />
  <D value="-0.0049259" />
  <E value="-0.0000027589" />
  <Tmin units="K" value="227.95" />
  <Tmax units="K" value="404.87" />
  </LiquidThermalConductivity>
<VaporThermalConductivity name="Vapour thermal conductivity" units="W/m/K">
  <eqno value="102" />
  <A value="0.0004167" />
  <B value="0.92033" />
  <C value="1902.9" />
  <D value="123750" />
  <Tmin units="K" value="227.95" />
  <Tmax units="K" value="1000" />
  </VaporThermalConductivity>
<SurfaceTension name="Surface tension" units="N/m">
  <eqno value="16" />
  <A value="-0.0095824" />
  <B value="101.65" />
  <C value="-3.6063" />
  <D value="0.0024021" />
  <E value="-0.0000068537" />
  <Tmin units="K" value="227.95" />
  <Tmax units="K" value="632.35" />
  </SurfaceTension>
<RPPHeatCapacityCp name="Ideal gas heat capacity (RPP)" units="J/kmol/K">
  <eqno value="100" />
  <A value="864.71" />
  <B value="318.34" />
  <C value="0.15033" />
  <D value="-0.00047659" />
  <E value="2.2599E-07" />
  <Tmin units="K" value="200" />
  <Tmax units="K" value="1000" />
  </RPPHeatCapacityCp>
<RelativeStaticPermittivity name="Relative static permittivity" units="_">
  <eqno value="120" />
  <A value="-4.352017" />
  <B value="-2800" />
  <C value="-16.8" />
  <Tmin units="K" value="154" />
  <Tmax units="K" value="449.15" />
  </RelativeStaticPermittivity>
<AntoineVaporPressure name="Antoine" units="Pa">
  <eqno value="10" />
  <A value="21.211" />
  <B value="3480.2" />
  <C value="-45.686" />
  <Tmin units="K" value="383.15" />
  <Tmax units="K" value="568.5" />
  </AntoineVaporPressure>
<LiquidViscosityRPS name="Liquid viscosity (RPS)" units="Pa.s">
  <eqno value="13" />
  <A value="-2.6012" />
  <B value="-0.01988" />
  <C value="0.000015158" />
  <Tmin units="K" value="250" />
  <Tmax units="K" value="540" />
  </LiquidViscosityRPS>
<COSTALDVolume name="COSTLD characteristic volume (V*)" units="m3/kmol" value="0.30667" />
<DiameterLJ name="Lennard Jones diameter" units="m" value="6.202025E-10" />
<EnergyLJ name="Lennard Jones energy" units="K" value="346.4098" />
<FullerVolume name="Fuller et al. diffusion volume" units="_" value="109.65" />
<MatthiasCopemanC2 name="Mathias-Copeman C2" units="_" value="0.33097" />
<Parachor name="Parachor" units="kg0.25.m3/s0.5/kmol" value="0.0434" />
<SpecificGravity name="Specific gravity" units="_" value="1.106" />
<Charge name="Charge" units="_" value="0" />
<CostaldAcentricFactor name="SRK acentric factor" units="_" value="0.24605" />
<WilsonVolume name="Wilson volume" units="m3/kmol" value="0.10229" />
<UniquacR name="UNIQUAC r" units="_" value="3.79" />
<UniquacQ name="UNIQUAC q" units="_" value="2.84" />
<MatthiasCopemanC3 name="Mathias-Copeman C3" units="_" value="-0.65335" />
<ChaoSeaderAcentricFactor name="Chao-Seader acentric factor" units="_" value="0.2459" />
<ChaoSeaderSolubilityParameter name="Chao-Seader solubility parameter" units="J0.5/m1.5" value="19345.3" />
<ChaoSeaderLiquidVolume name="Chao-Seader liquid volume" units="m3/kmol" value="0.10229" />
<UnifacVLE name="UNIFAC">
  <group id="10" value="5" />
  <group id="54" value="1" />
  </UnifacVLE>
<UnifacLLE name="UNIFAC-LLE">
  <group id="9" value="5" />
  <group id="40" value="1" />
  </UnifacLLE>
<Asog name="ASOG">
  <group id="10" value="5" />
  <group id="11" value="1" />
  <group id="42" value="1" />
  </Asog>
<Umr name="UMR">
  <group id="10" value="5" />
  <group id="54" value="1" />
  </Umr>
<ModifiedUnifac name="Modified UNIFAC">
  <group id="9" value="5" />
  <group id="53" value="1" />
  </ModifiedUnifac>
<CAS name="CAS number" value="108-90-7" />
<Smiles name="SMILES" value="c1ccccc1([Cl])" />
</compound>

