<compound>
<LibraryIndex name="Index" value="122" />
<CompoundID name="Name" value="n-butylcyclopentane" />
<StructureFormula name="Structure" value="(C5H9)CH2CH2CH2CH3" />
<Family name="Family" value="6" />
<CriticalTemperature name="Critical temperature" units="K" value="621" />
<CriticalPressure name="Critical pressure" units="Pa" value="2710000" />
<CriticalVolume name="Critical volume" units="m3/kmol" value="0.482" />
<CriticalCompressibility name="Critical compressibility factor" units="_" value="0.254" />
<NormalBoilingPointTemperature name="Normal boiling point" units="K" value="429.75" />
<NormalMeltingPointTemperature name="Melting point" units="K" value="165.165" />
<TriplePointTemperature name="Triple point temperature" units="K" value="165.18" />
<TriplePointPressure name="Triple point pressure" units="Pa" value="0.0000370087" />
<MolecularWeight name="Molecular weight" units="kg/kmol" value="126.2392" />
<LiquidVolumeAtNormalBoilingPoint name="Liquid molar volume at normal boiling point" units="m3/kmol" value="0.161572" />
<AcentricityFactor name="Acentric factor" units="_" value="0.37188" />
<RadiusOfGyration name="Radius of gyration" units="m" value="4.634E-10" />
<SolubilityParameter name="Solubility parameter" units="J0.5/m1.5" value="16390" />
<DipoleMoment name="Dipole moment" units="Coulomb.m" value="0" />
<VanDerWaalsVolume name="Van der Waals volume" units="m3/kmol" value="0.09092" />
<VanDerWaalsArea name="Van der Waals area" units="m2/kmol" value="1.157E+09" />
<HeatOfFormation name="IG heat of formation" units="J/kmol" value="-1.683E+08" />
<GibbsEnergyOfFormation name="IG Gibbs energy of formation" units="J/kmol" value="6.217E+07" />
<AbsEntropy name="IG absolute entropy" units="J/kmol/K" value="453800" />
<HeatOfFusionAtMeltingPoint name="Heat of fusion at melting point" units="J/kmol" value="1.131E+07" />
<HeatOfCombustion name="Standard net heat of combustion LHV" units="J/kmol" value="-5.5037E+09" />
<SolidDensity name="Solid density" units="kmol/m3">
  <eqno value="100" />
  <A value="8.8832" />
  <B value="-0.0067223" />
  <C value="0" />
  <D value="0" />
  <E value="0" />
  <Tmin units="K" value="66.07" />
  <Tmax units="K" value="165.18" />
  </SolidDensity>
<LiquidDensity name="Liquid density" units="kmol/m3">
  <eqno value="105" />
  <A value="0.55321" />
  <B value="0.26684" />
  <C value="621" />
  <D value="0.28873" />
  <Tmin units="K" value="165.18" />
  <Tmax units="K" value="597.01" />
  </LiquidDensity>
<VaporPressure name="Vapour pressure" units="Pa">
  <eqno value="101" />
  <A value="59.57026" />
  <B value="-7247.203" />
  <C value="-5.051393" />
  <D value="-2.973642E-06" />
  <E value="2" />
  <Tmin units="K" value="165.18" />
  <Tmax units="K" value="621" />
  </VaporPressure>
<HeatOfVaporization name="Heat of vaporization" units="J/kmol">
  <eqno value="106" />
  <A value="5.633912E+07" />
  <B value="-0.222347" />
  <C value="2.054738" />
  <D value="-2.396364" />
  <E value="0.924309" />
  <Tmin units="K" value="165.18" />
  <Tmax units="K" value="597.01" />
  </HeatOfVaporization>
<SolidHeatCapacityCp name="Solid heat capacity" units="J/kmol/K">
  <eqno value="100" />
  <A value="-15856" />
  <B value="1577.6" />
  <C value="-1.3452" />
  <D value="-0.054207" />
  <E value="0.00024372" />
  <Tmin units="K" value="14.41" />
  <Tmax units="K" value="154.28" />
  </SolidHeatCapacityCp>
<LiquidHeatCapacityCp name="Liquid heat capacity" units="J/kmol/K">
  <eqno value="16" />
  <A value="165400" />
  <B value="317.8" />
  <C value="5.7051" />
  <D value="0.0202" />
  <E value="-0.000017103" />
  <Tmin units="K" value="165.18" />
  <Tmax units="K" value="429.75" />
  </LiquidHeatCapacityCp>
<IdealGasHeatCapacityCp name="Ideal gas heat capacity" units="J/kmol/K">
  <eqno value="16" />
  <A value="82154" />
  <B value="-554.7" />
  <C value="13.299" />
  <D value="0.00015408" />
  <E value="-5.7536E-08" />
  <Tmin units="K" value="200" />
  <Tmax units="K" value="1500" />
  </IdealGasHeatCapacityCp>
<SecondVirialCoefficient name="Second virial coefficient" units="m3/kmol">
  <eqno value="104" />
  <A value="0.32315" />
  <B value="-400.67" />
  <C value="-80.571" />
  <D value="-12802" />
  <E value="-5984.5" />
  <Tmin units="K" value="310.5" />
  <Tmax units="K" value="1500" />
  </SecondVirialCoefficient>
<LiquidViscosity name="Liquid viscosity" units="Pa.s">
  <eqno value="101" />
  <A value="-10.446" />
  <B value="1200.4" />
  <C value="-0.12541" />
  <D value="4.6316E-07" />
  <E value="2" />
  <Tmin units="K" value="165.18" />
  <Tmax units="K" value="558.9" />
  </LiquidViscosity>
<VaporViscosity name="Vapour viscosity" units="Pa.s">
  <eqno value="102" />
  <A value="0.0000029081" />
  <B value="0.33269" />
  <C value="700.46" />
  <D value="-5220.4" />
  <Tmin units="K" value="165.18" />
  <Tmax units="K" value="1000" />
  </VaporViscosity>
<LiquidThermalConductivity name="Liquid thermal conductivity" units="W/m/K">
  <eqno value="16" />
  <A value="-0.059329" />
  <B value="3.6894" />
  <C value="-1.5397" />
  <D value="-0.00046539" />
  <E value="-0.0000010217" />
  <Tmin units="K" value="165.18" />
  <Tmax units="K" value="429.75" />
  </LiquidThermalConductivity>
<VaporThermalConductivity name="Vapour thermal conductivity" units="W/m/K">
  <eqno value="102" />
  <A value="0.001615" />
  <B value="0.65033" />
  <C value="212.05" />
  <D value="447790" />
  <Tmin units="K" value="165.18" />
  <Tmax units="K" value="1000" />
  </VaporThermalConductivity>
<SurfaceTension name="Surface tension" units="N/m">
  <eqno value="16" />
  <A value="-0.011464" />
  <B value="28.973" />
  <C value="-3.0712" />
  <D value="0.000095681" />
  <E value="-0.000003989" />
  <Tmin units="K" value="165.18" />
  <Tmax units="K" value="597.01" />
  </SurfaceTension>
<RPPHeatCapacityCp name="Ideal gas heat capacity (RPP)" units="J/kmol/K">
  <eqno value="4" />
  <A value="-39198" />
  <B value="866.48" />
  <C value="-0.45949" />
  <D value="0.000092411" />
  <Tmin units="K" value="200" />
  <Tmax units="K" value="1500" />
  </RPPHeatCapacityCp>
<AntoineVaporPressure name="Antoine" units="Pa">
  <eqno value="10" />
  <A value="20.885" />
  <B value="3420.5" />
  <C value="-64.212" />
  <Tmin units="K" value="375.65" />
  <Tmax units="K" value="549.03" />
  </AntoineVaporPressure>
<LiquidViscosityRPS name="Liquid viscosity (RPS)" units="Pa.s">
  <eqno value="12" />
  <A value="-2.1614" />
  <B value="-0.015728" />
  <Tmin units="K" value="165.18" />
  <Tmax units="K" value="429.75" />
  </LiquidViscosityRPS>
<COSTALDVolume name="COSTLD characteristic volume (V*)" units="m3/kmol" value="0.500385" />
<DiameterLJ name="Lennard Jones diameter" units="m" value="7.576352E-10" />
<EnergyLJ name="Lennard Jones energy" units="K" value="292.0157" />
<RacketParameter name="Rackett parameter" units="_" value="0.254" />
<FullerVolume name="Fuller et al. diffusion volume" units="_" value="184.68" />
<Parachor name="Parachor" units="kg0.25.m3/s0.5/kmol" value="0.0642821" />
<SpecificGravity name="Specific gravity" units="_" value="0.789312" />
<Charge name="Charge" units="_" value="0" />
<CostaldAcentricFactor name="SRK acentric factor" units="_" value="0.37188" />
<WilsonVolume name="Wilson volume" units="m3/kmol" value="0.161572" />
<UniquacR name="UNIQUAC r" units="_" value="6.068799" />
<UniquacQ name="UNIQUAC q" units="_" value="4.856" />
<ChaoSeaderAcentricFactor name="Chao-Seader acentric factor" units="_" value="0.37188" />
<ChaoSeaderSolubilityParameter name="Chao-Seader solubility parameter" units="J0.5/m1.5" value="16390" />
<ChaoSeaderLiquidVolume name="Chao-Seader liquid volume" units="m3/kmol" value="0.161572" />
<UnifacVLE name="UNIFAC">
  <group id="1" value="1" />
  <group id="2" value="7" />
  <group id="3" value="1" />
  </UnifacVLE>
<UnifacLLE name="UNIFAC-LLE">
  <group id="1" value="1" />
  <group id="2" value="7" />
  <group id="3" value="1" />
  </UnifacLLE>
<Asog name="ASOG">
  <group id="1" value="1" />
  <group id="2" value="7" />
  <group id="3" value="1" />
  </Asog>
<GCmethod name="PPR78">
  <group id="1" value="1" />
  <group id="2" value="3" />
  <group id="10" value="4" />
  <group id="11" value="1" />
  </GCmethod>
<Umr name="UMR">
  <group id="1" value="1" />
  <group id="2" value="7" />
  <group id="3" value="1" />
  </Umr>
<ModifiedUnifac name="Modified UNIFAC">
  <group id="1" value="1" />
  <group id="2" value="3" />
  <group id="78" value="4" />
  <group id="79" value="1" />
  </ModifiedUnifac>
<CAS name="CAS number" value="2040-95-1" />
<Smiles name="SMILES" value="C1CCCC1(CCCC)" />
</compound>

