<compound>
<LibraryIndex name="Index" value="80" />
<CompoundID name="Name" value="n-heptacosane" />
<StructureFormula name="Structure" value="CH3(CH2)25CH3" />
<Family name="Family" value="1" />
<CriticalTemperature name="Critical temperature" units="K" value="826" />
<CriticalPressure name="Critical pressure" units="Pa" value="883000" />
<CriticalVolume name="Critical volume" units="m3/kmol" value="1.58" />
<CriticalCompressibility name="Critical compressibility factor" units="_" value="0.203" />
<NormalBoilingPointTemperature name="Normal boiling point" units="K" value="695.25" />
<NormalMeltingPointTemperature name="Melting point" units="K" value="332.65" />
<TriplePointTemperature name="Triple point temperature" units="K" value="332.15" />
<TriplePointPressure name="Triple point pressure" units="Pa" value="0.000283125" />
<MolecularWeight name="Molecular weight" units="kg/kmol" value="380.7336" />
<LiquidVolumeAtNormalBoilingPoint name="Liquid molar volume at normal boiling point" units="m3/kmol" value="0.48815" />
<AcentricityFactor name="Acentric factor" units="_" value="1.21357" />
<RadiusOfGyration name="Radius of gyration" units="m" value="1.017E-09" />
<SolubilityParameter name="Solubility parameter" units="J0.5/m1.5" value="15810" />
<DipoleMoment name="Dipole moment" units="Coulomb.m" value="0" />
<VanDerWaalsVolume name="Van der Waals volume" units="m3/kmol" value="0.28309" />
<VanDerWaalsArea name="Van der Waals area" units="m2/kmol" value="3.799E+09" />
<HeatOfFormation name="IG heat of formation" units="J/kmol" value="-6.021E+08" />
<GibbsEnergyOfFormation name="IG Gibbs energy of formation" units="J/kmol" value="1.716E+08" />
<AbsEntropy name="IG absolute entropy" units="J/kmol/K" value="1216000" />
<HeatOfFusionAtMeltingPoint name="Heat of fusion at melting point" units="J/kmol" value="6.0417E+07" />
<MatthiasCopemanC1 name="Mathias-Copeman C1" units="_" value="2.15" />
<HeatOfCombustion name="Standard net heat of combustion LHV" units="J/kmol" value="-1.66E+10" />
<SolidDensity name="Solid density" units="kmol/m3">
  <eqno value="100" />
  <A value="2.6193" />
  <B value="-0.00098572" />
  <C value="0" />
  <D value="0" />
  <E value="0" />
  <Tmin units="K" value="132.86" />
  <Tmax units="K" value="332.15" />
  </SolidDensity>
<LiquidDensity name="Liquid density" units="kmol/m3">
  <eqno value="105" />
  <A value="0.13373" />
  <B value="0.23061" />
  <C value="826" />
  <D value="0.29272" />
  <Tmin units="K" value="293.15" />
  <Tmax units="K" value="800.01" />
  </LiquidDensity>
<VaporPressure name="Vapour pressure" units="Pa">
  <eqno value="101" />
  <A value="254.28" />
  <B value="-25266" />
  <C value="-32.268" />
  <D value="0.0000098574" />
  <E value="2" />
  <Tmin units="K" value="332.15" />
  <Tmax units="K" value="826" />
  </VaporPressure>
<HeatOfVaporization name="Heat of vaporization" units="J/kmol">
  <eqno value="106" />
  <A value="1.738E+08" />
  <B value="0.55455" />
  <C value="0.6619" />
  <D value="-1.1864" />
  <E value="0.39235" />
  <Tmin units="K" value="332.15" />
  <Tmax units="K" value="800.01" />
  </HeatOfVaporization>
<SolidHeatCapacityCp name="Solid heat capacity" units="J/kmol/K">
  <eqno value="100" />
  <A value="131.35" />
  <B value="10430" />
  <C value="-49.252" />
  <D value="0.10336" />
  <E value="-0.000081339" />
  <Tmin units="K" value="313" />
  <Tmax units="K" value="322.5" />
  </SolidHeatCapacityCp>
<LiquidHeatCapacityCp name="Liquid heat capacity" units="J/kmol/K">
  <eqno value="16" />
  <A value="287690" />
  <B value="-499.88" />
  <C value="15.238" />
  <D value="-0.0020847" />
  <E value="0.000001614" />
  <Tmin units="K" value="332.15" />
  <Tmax units="K" value="695.25" />
  </LiquidHeatCapacityCp>
<IdealGasHeatCapacityCp name="Ideal gas heat capacity" units="J/kmol/K">
  <eqno value="16" />
  <A value="324210" />
  <B value="-507.11" />
  <C value="14.235" />
  <D value="0.00027032" />
  <E value="-9.4813E-08" />
  <Tmin units="K" value="273" />
  <Tmax units="K" value="1500" />
  </IdealGasHeatCapacityCp>
<SecondVirialCoefficient name="Second virial coefficient" units="m3/kmol">
  <eqno value="104" />
  <A value="0.94678" />
  <B value="-319.68" />
  <C value="-1479.8" />
  <D value="-4020400" />
  <E value="8104800" />
  <Tmin units="K" value="413" />
  <Tmax units="K" value="1500" />
  </SecondVirialCoefficient>
<LiquidViscosity name="Liquid viscosity" units="Pa.s">
  <eqno value="101" />
  <A value="-11.337" />
  <B value="2071.7" />
  <C value="-0.014083" />
  <D value="1.056E-08" />
  <E value="2" />
  <Tmin units="K" value="332.15" />
  <Tmax units="K" value="695.25" />
  </LiquidViscosity>
<VaporViscosity name="Vapour viscosity" units="Pa.s">
  <eqno value="102" />
  <A value="2.7943E-07" />
  <B value="0.60493" />
  <C value="599.04" />
  <D value="42458" />
  <Tmin units="K" value="332.15" />
  <Tmax units="K" value="1000" />
  </VaporViscosity>
<LiquidThermalConductivity name="Liquid thermal conductivity" units="W/m/K">
  <eqno value="16" />
  <A value="-0.12846" />
  <B value="8.4662" />
  <C value="-1.1232" />
  <D value="-0.00036291" />
  <E value="-3.8993E-07" />
  <Tmin units="K" value="332.15" />
  <Tmax units="K" value="695.25" />
  </LiquidThermalConductivity>
<VaporThermalConductivity name="Vapour thermal conductivity" units="W/m/K">
  <eqno value="102" />
  <A value="-177.26" />
  <B value="1.0676" />
  <C value="-4.7446E+09" />
  <D value="-7.2852E+10" />
  <Tmin units="K" value="332.15" />
  <Tmax units="K" value="1000" />
  </VaporThermalConductivity>
<SurfaceTension name="Surface tension" units="N/m">
  <eqno value="16" />
  <A value="-0.065365" />
  <B value="-27.602" />
  <C value="-1.8659" />
  <D value="-0.0014826" />
  <E value="5.6633E-07" />
  <Tmin units="K" value="332.15" />
  <Tmax units="K" value="800.01" />
  </SurfaceTension>
<RPPHeatCapacityCp name="Ideal gas heat capacity (RPP)" units="J/kmol/K">
  <eqno value="4" />
  <A value="-11687" />
  <B value="2518.7" />
  <C value="-1.3794" />
  <D value="0.00029016" />
  <Tmin units="K" value="300" />
  <Tmax units="K" value="1500" />
  </RPPHeatCapacityCp>
<AntoineVaporPressure name="Antoine" units="Pa">
  <eqno value="10" />
  <A value="21.746" />
  <B value="5352.8" />
  <C value="-170.98" />
  <Tmin units="K" value="514.09" />
  <Tmax units="K" value="727.23" />
  </AntoineVaporPressure>
<LiquidViscosityRPS name="Liquid viscosity (RPS)" units="Pa.s">
  <eqno value="12" />
  <A value="-2.756" />
  <B value="-0.0086105" />
  <Tmin units="K" value="332.15" />
  <Tmax units="K" value="695.25" />
  </LiquidViscosityRPS>
<COSTALDVolume name="COSTLD characteristic volume (V*)" units="m3/kmol" value="1.871975" />
<DiameterLJ name="Lennard Jones diameter" units="m" value="1.472771E-09" />
<EnergyLJ name="Lennard Jones energy" units="K" value="173.3321" />
<RacketParameter name="Rackett parameter" units="_" value="0.226318" />
<FullerVolume name="Fuller et al. diffusion volume" units="_" value="558.66" />
<MatthiasCopemanC2 name="Mathias-Copeman C2" units="_" value="0" />
<Parachor name="Parachor" units="kg0.25.m3/s0.5/kmol" value="0.191283" />
<SpecificGravity name="Specific gravity" units="_" value="0.805702" />
<Charge name="Charge" units="_" value="0" />
<CostaldAcentricFactor name="SRK acentric factor" units="_" value="1.21357" />
<WilsonVolume name="Wilson volume" units="m3/kmol" value="0.48815" />
<UniquacR name="UNIQUAC r" units="_" value="18.6622" />
<UniquacQ name="UNIQUAC q" units="_" value="15.196" />
<MatthiasCopemanC3 name="Mathias-Copeman C3" units="_" value="0" />
<ChaoSeaderAcentricFactor name="Chao-Seader acentric factor" units="_" value="1.21357" />
<ChaoSeaderSolubilityParameter name="Chao-Seader solubility parameter" units="J0.5/m1.5" value="15810" />
<ChaoSeaderLiquidVolume name="Chao-Seader liquid volume" units="m3/kmol" value="0.48815" />
<UnifacVLE name="UNIFAC">
  <group id="1" value="2" />
  <group id="2" value="25" />
  </UnifacVLE>
<UnifacLLE name="UNIFAC-LLE">
  <group id="1" value="2" />
  <group id="2" value="25" />
  </UnifacLLE>
<Asog name="ASOG">
  <group id="1" value="2" />
  <group id="2" value="25" />
  </Asog>
<GCmethod name="PPR78">
  <group id="1" value="2" />
  <group id="2" value="25" />
  </GCmethod>
<Umr name="UMR">
  <group id="1" value="2" />
  <group id="2" value="25" />
  </Umr>
<ModifiedUnifac name="Modified UNIFAC">
  <group id="1" value="2" />
  <group id="2" value="25" />
  </ModifiedUnifac>
<CAS name="CAS number" value="593-49-7" />
<Smiles name="SMILES" value="CCCCCCCCCCCCCCCCCCCCCCCCCCC" />
</compound>

