<compound>
<LibraryIndex name="Index" value="905" />
<CompoundID name="Name" value="nitrogen" />
<StructureFormula name="Structure" value="N2" />
<Family name="Family" value="74" />
<CriticalTemperature name="Critical temperature" units="K" value="126.2" />
<CriticalPressure name="Critical pressure" units="Pa" value="3398000" />
<CriticalVolume name="Critical volume" units="m3/kmol" value="0.0901" />
<CriticalCompressibility name="Critical compressibility factor" units="_" value="0.289" />
<NormalBoilingPointTemperature name="Normal boiling point" units="K" value="77.35" />
<NormalMeltingPointTemperature name="Melting point" units="K" value="63.149" />
<TriplePointTemperature name="Triple point temperature" units="K" value="63.149" />
<TriplePointPressure name="Triple point pressure" units="Pa" value="12520" />
<MolecularWeight name="Molecular weight" units="kg/kmol" value="28.0134" />
<LiquidVolumeAtNormalBoilingPoint name="Liquid molar volume at normal boiling point" units="m3/kmol" value="0.03484" />
<AcentricityFactor name="Acentric factor" units="_" value="0.037" />
<RadiusOfGyration name="Radius of gyration" units="m" value="5.471E-11" />
<SolubilityParameter name="Solubility parameter" units="J0.5/m1.5" value="9082" />
<DipoleMoment name="Dipole moment" units="Coulomb.m" value="0" />
<VanDerWaalsVolume name="Van der Waals volume" units="m3/kmol" value="0.0158" />
<VanDerWaalsArea name="Van der Waals area" units="m2/kmol" value="2.72E+08" />
<HeatOfFormation name="IG heat of formation" units="J/kmol" value="0" />
<GibbsEnergyOfFormation name="IG Gibbs energy of formation" units="J/kmol" value="0" />
<AbsEntropy name="IG absolute entropy" units="J/kmol/K" value="191500" />
<HeatOfFusionAtMeltingPoint name="Heat of fusion at melting point" units="J/kmol" value="720000" />
<MatthiasCopemanC1 name="Mathias-Copeman C1" units="_" value="0.54268" />
<HeatOfCombustion name="Standard net heat of combustion LHV" units="J/kmol" value="0" />
<SolidDensity name="Solid density" units="kmol/m3">
  <eqno value="2" />
  <A value="37.87" />
  <B value="-0.06027" />
  <Tmin units="K" value="20.65" />
  <Tmax units="K" value="63.15" />
  </SolidDensity>
<LiquidDensity name="Liquid density" units="kmol/m3">
  <eqno value="105" />
  <A value="2.435" />
  <B value="0.25137" />
  <C value="126.27" />
  <D value="0.249" />
  <Tmin units="K" value="63.15" />
  <Tmax units="K" value="126.26" />
  </LiquidDensity>
<VaporPressure name="Vapour pressure" units="Pa">
  <eqno value="101" />
  <A value="42.32946" />
  <B value="-965.9771" />
  <C value="-4.321774" />
  <D value="0.0000797271" />
  <E value="2" />
  <Tmin units="K" value="60.81" />
  <Tmax units="K" value="126.26" />
  </VaporPressure>
<HeatOfVaporization name="Heat of vaporization" units="J/kmol">
  <eqno value="106" />
  <A value="2.7284E+07" />
  <B value="7.8021" />
  <C value="-19.125" />
  <D value="19.518" />
  <E value="-7.5428" />
  <Tmin units="K" value="63.15" />
  <Tmax units="K" value="126.26" />
  </HeatOfVaporization>
<SolidHeatCapacityCp name="Solid heat capacity" units="J/kmol/K">
  <eqno value="100" />
  <A value="383890" />
  <B value="-28798" />
  <C value="875.74" />
  <D value="-11.589" />
  <E value="0.057106" />
  <Tmin units="K" value="32.8" />
  <Tmax units="K" value="63" />
  </SolidHeatCapacityCp>
<LiquidHeatCapacityCp name="Liquid heat capacity" units="J/kmol/K">
  <eqno value="16" />
  <A value="55135" />
  <B value="217.45" />
  <C value="-0.9071" />
  <D value="0.05327" />
  <E value="0.00024166" />
  <Tmin units="K" value="63.15" />
  <Tmax units="K" value="115" />
  </LiquidHeatCapacityCp>
<IdealGasHeatCapacityCp name="Ideal gas heat capacity" units="J/kmol/K">
  <eqno value="16" />
  <A value="29103.63" />
  <B value="-2305.946" />
  <C value="11.31935" />
  <D value="-0.00100557" />
  <E value="1.706099E-07" />
  <Tmin units="K" value="50" />
  <Tmax units="K" value="1500" />
  </IdealGasHeatCapacityCp>
<SecondVirialCoefficient name="Second virial coefficient" units="m3/kmol">
  <eqno value="104" />
  <A value="0.043512" />
  <B value="-13.524" />
  <C value="-0.091223" />
  <D value="0.10229" />
  <E value="-0.078721" />
  <Tmin units="K" value="90" />
  <Tmax units="K" value="1400" />
  </SecondVirialCoefficient>
<LiquidViscosity name="Liquid viscosity" units="Pa.s">
  <eqno value="101" />
  <A value="3.4358" />
  <B value="-24.706" />
  <C value="-2.6748" />
  <D value="-0.000041603" />
  <E value="2" />
  <Tmin units="K" value="63.15" />
  <Tmax units="K" value="125" />
  </LiquidViscosity>
<VaporViscosity name="Vapour viscosity" units="Pa.s">
  <eqno value="102" />
  <A value="4.6051E-07" />
  <B value="0.65049" />
  <C value="5.8019" />
  <D value="2822.7" />
  <Tmin units="K" value="63.15" />
  <Tmax units="K" value="1970" />
  </VaporViscosity>
<LiquidThermalConductivity name="Liquid thermal conductivity" units="W/m/K">
  <eqno value="16" />
  <A value="-0.21743" />
  <B value="10.383" />
  <C value="-1.0631" />
  <D value="0.00036245" />
  <E value="-0.000023265" />
  <Tmin units="K" value="60" />
  <Tmax units="K" value="124" />
  </LiquidThermalConductivity>
<VaporThermalConductivity name="Vapour thermal conductivity" units="W/m/K">
  <eqno value="102" />
  <A value="0.0003395" />
  <B value="0.76921" />
  <C value="19.592" />
  <D value="293.93" />
  <Tmin units="K" value="50" />
  <Tmax units="K" value="2000" />
  </VaporThermalConductivity>
<SurfaceTension name="Surface tension" units="N/m">
  <eqno value="16" />
  <A value="-0.0025409" />
  <B value="96.836" />
  <C value="-7.6473" />
  <D value="0.05313" />
  <E value="-0.00036553" />
  <Tmin units="K" value="63.15" />
  <Tmax units="K" value="126.2" />
  </SurfaceTension>
<RPPHeatCapacityCp name="Ideal gas heat capacity (RPP)" units="J/kmol/K">
  <eqno value="100" />
  <A value="29425" />
  <B value="-2.1701" />
  <C value="0.00058201" />
  <D value="0.000013054" />
  <E value="-8.2313E-09" />
  <Tmin units="K" value="50" />
  <Tmax units="K" value="1000" />
  </RPPHeatCapacityCp>
<RelativeStaticPermittivity name="Relative static permittivity" units="_">
  <eqno value="1" />
  <A value="1.00058" />
  <Tmin units="K" value="100" />
  <Tmax units="K" value="1500" />
  </RelativeStaticPermittivity>
<AntoineVaporPressure name="Antoine" units="Pa">
  <eqno value="10" />
  <A value="20.455" />
  <B value="682.85" />
  <C value="-0.86615" />
  <Tmin units="K" value="76" />
  <Tmax units="K" value="112.93" />
  </AntoineVaporPressure>
<LiquidViscosityRPS name="Liquid viscosity (RPS)" units="Pa.s">
  <eqno value="13" />
  <A value="-5.5907" />
  <B value="-0.045786" />
  <C value="0.000062538" />
  <Tmin units="K" value="63.15" />
  <Tmax units="K" value="125" />
  </LiquidViscosityRPS>
<COSTALDVolume name="COSTLD characteristic volume (V*)" units="m3/kmol" value="0.0901499" />
<DiameterLJ name="Lennard Jones diameter" units="m" value="3.710301E-10" />
<EnergyLJ name="Lennard Jones energy" units="K" value="94.45061" />
<RacketParameter name="Rackett parameter" units="_" value="0.2906" />
<FullerVolume name="Fuller et al. diffusion volume" units="_" value="18.5" />
<MatthiasCopemanC2 name="Mathias-Copeman C2" units="_" value="0" />
<Parachor name="Parachor" units="kg0.25.m3/s0.5/kmol" value="0.0107" />
<SpecificGravity name="Specific gravity" units="_" value="0.806374" />
<Charge name="Charge" units="_" value="0" />
<CostaldAcentricFactor name="SRK acentric factor" units="_" value="0.0357998" />
<WilsonVolume name="Wilson volume" units="m3/kmol" value="0.0346723" />
<UniquacR name="UNIQUAC r" units="_" value="1.0415" />
<UniquacQ name="UNIQUAC q" units="_" value="1.088" />
<ApiSrkS2 name="API-SRK s2" units="_" value="-0.011016" />
<MatthiasCopemanC3 name="Mathias-Copeman C3" units="_" value="0" />
<ChaoSeaderAcentricFactor name="Chao-Seader acentric factor" units="_" value="0.045" />
<ChaoSeaderSolubilityParameter name="Chao-Seader solubility parameter" units="J0.5/m1.5" value="9081.94" />
<ChaoSeaderLiquidVolume name="Chao-Seader liquid volume" units="m3/kmol" value="0.0346723" />
<GCmethod name="PPR78">
  <group id="13" value="1" />
  </GCmethod>
<Umr name="UMR">
  <group id="209" value="1" />
  </Umr>
<CAS name="CAS number" value="7727-37-9" />
<Smiles name="SMILES" value="N#N" />
</compound>

