<compound>
<LibraryIndex name="Index" value="1903" />
<CompoundID name="Name" value="nitric acid" />
<StructureFormula name="Structure" value="HNO3" />
<Family name="Family" value="77" />
<CriticalTemperature name="Critical temperature" units="K" value="520" />
<CriticalPressure name="Critical pressure" units="Pa" value="6890100" />
<CriticalVolume name="Critical volume" units="m3/kmol" value="0.145" />
<CriticalCompressibility name="Critical compressibility factor" units="_" value="0.231" />
<NormalBoilingPointTemperature name="Normal boiling point" units="K" value="356.15" />
<NormalMeltingPointTemperature name="Melting point" units="K" value="231.55" />
<TriplePointTemperature name="Triple point temperature" units="K" value="231.55" />
<TriplePointPressure name="Triple point pressure" units="Pa" value="60.7682" />
<MolecularWeight name="Molecular weight" units="kg/kmol" value="63.01284" />
<LiquidVolumeAtNormalBoilingPoint name="Liquid molar volume at normal boiling point" units="m3/kmol" value="0.041734" />
<AcentricityFactor name="Acentric factor" units="_" value="0.714406" />
<RadiusOfGyration name="Radius of gyration" units="m" value="2.2491E-10" />
<SolubilityParameter name="Solubility parameter" units="J0.5/m1.5" value="29610" />
<DipoleMoment name="Dipole moment" units="Coulomb.m" value="7.24E-30" />
<VanDerWaalsVolume name="Van der Waals volume" units="m3/kmol" value="0.02486" />
<VanDerWaalsArea name="Van der Waals area" units="m2/kmol" value="3.91E+08" />
<HeatOfFormation name="IG heat of formation" units="J/kmol" value="-1.343E+08" />
<GibbsEnergyOfFormation name="IG Gibbs energy of formation" units="J/kmol" value="-7.401E+07" />
<AbsEntropy name="IG absolute entropy" units="J/kmol/K" value="266370" />
<HeatOfFusionAtMeltingPoint name="Heat of fusion at melting point" units="J/kmol" value="1.047E+07" />
<MatthiasCopemanC1 name="Mathias-Copeman C1" units="_" value="2.1998" />
<HeatOfCombustion name="Standard net heat of combustion LHV" units="J/kmol" value="1.34E+07" />
<SolidDensity name="Solid density" units="kmol/m3">
  <eqno value="2" />
  <A value="30.073" />
  <B value="-1.103E-09" />
  <Tmin units="K" value="231.55" />
  <Tmax units="K" value="241.05" />
  </SolidDensity>
<LiquidDensity name="Liquid density" units="kmol/m3">
  <eqno value="105" />
  <A value="6.9293" />
  <B value="0.47274" />
  <C value="520" />
  <D value="0.49837" />
  <Tmin units="K" value="231.55" />
  <Tmax units="K" value="373.15" />
  </LiquidDensity>
<VaporPressure name="Vapour pressure" units="Pa">
  <eqno value="101" />
  <A value="26.654" />
  <B value="-5017.1" />
  <C value="-0.036699" />
  <D value="-0.0000064771" />
  <E value="2" />
  <Tmin units="K" value="231.55" />
  <Tmax units="K" value="376.1" />
  </VaporPressure>
<HeatOfVaporization name="Heat of vaporization" units="J/kmol">
  <eqno value="106" />
  <A value="7.01E+07" />
  <B value="0.68707" />
  <C value="-0.0019914" />
  <D value="0.0028792" />
  <E value="-0.0014403" />
  <Tmin units="K" value="231.55" />
  <Tmax units="K" value="359.15" />
  </HeatOfVaporization>
<SolidHeatCapacityCp name="Solid heat capacity" units="J/kmol/K">
  <eqno value="100" />
  <A value="-15807" />
  <B value="1147" />
  <C value="-8.2333" />
  <D value="0.029082" />
  <E value="-0.000034574" />
  <Tmin units="K" value="22.94" />
  <Tmax units="K" value="225.42" />
  </SolidHeatCapacityCp>
<LiquidHeatCapacityCp name="Liquid heat capacity" units="J/kmol/K">
  <eqno value="16" />
  <A value="111110" />
  <B value="-611.57" />
  <C value="-2.7202" />
  <D value="0.014286" />
  <E value="-0.000033905" />
  <Tmin units="K" value="238.57" />
  <Tmax units="K" value="302.89" />
  </LiquidHeatCapacityCp>
<IdealGasHeatCapacityCp name="Ideal gas heat capacity" units="J/kmol/K">
  <eqno value="16" />
  <A value="32639" />
  <B value="-463.06" />
  <C value="11.547" />
  <D value="-0.00011018" />
  <E value="4.1801E-09" />
  <Tmin units="K" value="100" />
  <Tmax units="K" value="1500" />
  </IdealGasHeatCapacityCp>
<LiquidViscosity name="Liquid viscosity" units="Pa.s">
  <eqno value="101" />
  <A value="264.29" />
  <B value="-7985" />
  <C value="-44.099" />
  <D value="0.000074947" />
  <E value="2" />
  <Tmin units="K" value="273.15" />
  <Tmax units="K" value="367.9" />
  </LiquidViscosity>
<VaporViscosity name="Vapour viscosity" units="Pa.s">
  <eqno value="102" />
  <A value="2.2234E-07" />
  <B value="0.72283" />
  <C value="140.72" />
  <D value="-0.0025913" />
  <Tmin units="K" value="231.55" />
  <Tmax units="K" value="1000" />
  </VaporViscosity>
<LiquidThermalConductivity name="Liquid thermal conductivity" units="W/m/K">
  <eqno value="16" />
  <A value="0.15591" />
  <B value="-186.43" />
  <C value="-2.2714" />
  <D value="0.0033214" />
  <E value="-0.0000018932" />
  <Tmin units="K" value="233.15" />
  <Tmax units="K" value="433.15" />
  </LiquidThermalConductivity>
<VaporThermalConductivity name="Vapour thermal conductivity" units="W/m/K">
  <eqno value="102" />
  <A value="0.00063365" />
  <B value="0.72057" />
  <C value="645.24" />
  <D value="0.005306" />
  <Tmin units="K" value="231.55" />
  <Tmax units="K" value="1000" />
  </VaporThermalConductivity>
<SurfaceTension name="Surface tension" units="N/m">
  <eqno value="16" />
  <A value="0.0024017" />
  <B value="-360.8" />
  <C value="0.85285" />
  <D value="-0.011656" />
  <E value="0.00000622" />
  <Tmin units="K" value="273.15" />
  <Tmax units="K" value="313.15" />
  </SurfaceTension>
<RPPHeatCapacityCp name="Ideal gas heat capacity (RPP)" units="J/kmol/K">
  <eqno value="4" />
  <A value="17609.83" />
  <B value="143.171" />
  <C value="-0.0711401" />
  <D value="0" />
  <Tmin units="K" value="200" />
  <Tmax units="K" value="1200" />
  </RPPHeatCapacityCp>
<AntoineVaporPressure name="Antoine" units="Pa">
  <eqno value="10" />
  <A value="22.093" />
  <B value="3202.8" />
  <C value="-52.952" />
  <Tmin units="K" value="313.15" />
  <Tmax units="K" value="376.1" />
  </AntoineVaporPressure>
<LiquidViscosityRPS name="Liquid viscosity (RPS)" units="Pa.s">
  <eqno value="13" />
  <A value="0.56421" />
  <B value="-0.038177" />
  <C value="0.000041918" />
  <Tmin units="K" value="273.15" />
  <Tmax units="K" value="367.9" />
  </LiquidViscosityRPS>
<COSTALDVolume name="COSTLD characteristic volume (V*)" units="m3/kmol" value="0.13222" />
<DiameterLJ name="Lennard Jones diameter" units="m" value="5.688965E-10" />
<EnergyLJ name="Lennard Jones energy" units="K" value="173.748" />
<FullerVolume name="Fuller et al. diffusion volume" units="_" value="25.18" />
<MatthiasCopemanC2 name="Mathias-Copeman C2" units="_" value="-5.603" />
<Parachor name="Parachor" units="kg0.25.m3/s0.5/kmol" value="0.0187106" />
<SpecificGravity name="Specific gravity" units="_" value="1.52364" />
<Charge name="Charge" units="_" value="0" />
<CostaldAcentricFactor name="SRK acentric factor" units="_" value="0.71438" />
<WilsonVolume name="Wilson volume" units="m3/kmol" value="0.041734" />
<UniquacR name="UNIQUAC r" units="_" value="1.638761" />
<UniquacQ name="UNIQUAC q" units="_" value="1.564" />
<MatthiasCopemanC3 name="Mathias-Copeman C3" units="_" value="8.661" />
<ChaoSeaderAcentricFactor name="Chao-Seader acentric factor" units="_" value="0.714406" />
<ChaoSeaderSolubilityParameter name="Chao-Seader solubility parameter" units="J0.5/m1.5" value="29605.6" />
<ChaoSeaderLiquidVolume name="Chao-Seader liquid volume" units="m3/kmol" value="0.041734" />
<CAS name="CAS number" value="7697-37-2" />
<Smiles name="SMILES" value="ON(=O)=O" />
</compound>

