<compound>
<LibraryIndex name="Index" value="1182" />
<CompoundID name="Name" value="o-cresol" />
<StructureFormula name="Structure" value="CH3(C6H4)OH" />
<Family name="Family" value="48" />
<CriticalTemperature name="Critical temperature" units="K" value="697.6" />
<CriticalPressure name="Critical pressure" units="Pa" value="5000000" />
<CriticalVolume name="Critical volume" units="m3/kmol" value="0.282" />
<CriticalCompressibility name="Critical compressibility factor" units="_" value="0.243" />
<NormalBoilingPointTemperature name="Normal boiling point" units="K" value="464.17" />
<NormalMeltingPointTemperature name="Melting point" units="K" value="304.19" />
<TriplePointTemperature name="Triple point temperature" units="K" value="304.19" />
<TriplePointPressure name="Triple point pressure" units="Pa" value="65.3261" />
<MolecularWeight name="Molecular weight" units="kg/kmol" value="108.1378" />
<LiquidVolumeAtNormalBoilingPoint name="Liquid molar volume at normal boiling point" units="m3/kmol" value="0.10364" />
<AcentricityFactor name="Acentric factor" units="_" value="0.435" />
<RadiusOfGyration name="Radius of gyration" units="m" value="3.787E-10" />
<SolubilityParameter name="Solubility parameter" units="J0.5/m1.5" value="22870" />
<DipoleMoment name="Dipole moment" units="Coulomb.m" value="4.84E-30" />
<VanDerWaalsVolume name="Van der Waals volume" units="m3/kmol" value="0.06503" />
<VanDerWaalsArea name="Van der Waals area" units="m2/kmol" value="8.18E+08" />
<HeatOfFormation name="IG heat of formation" units="J/kmol" value="-1.2857E+08" />
<GibbsEnergyOfFormation name="IG Gibbs energy of formation" units="J/kmol" value="-3.543E+07" />
<AbsEntropy name="IG absolute entropy" units="J/kmol/K" value="352590" />
<HeatOfFusionAtMeltingPoint name="Heat of fusion at melting point" units="J/kmol" value="1.582E+07" />
<MatthiasCopemanC1 name="Mathias-Copeman C1" units="_" value="1.2881" />
<HeatOfCombustion name="Standard net heat of combustion LHV" units="J/kmol" value="-3.528E+09" />
<SolidDensity name="Solid density" units="kmol/m3">
  <eqno value="2" />
  <A value="4.5708" />
  <B value="0.019375" />
  <Tmin units="K" value="293.15" />
  <Tmax units="K" value="307.65" />
  </SolidDensity>
<LiquidDensity name="Liquid density" units="kmol/m3">
  <eqno value="105" />
  <A value="1.1115" />
  <B value="0.30952" />
  <C value="697.6" />
  <D value="0.31161" />
  <Tmin units="K" value="273.15" />
  <Tmax units="K" value="676.85" />
  </LiquidDensity>
<VaporPressure name="Vapour pressure" units="Pa">
  <eqno value="101" />
  <A value="140.51" />
  <B value="-11819" />
  <C value="-17.163" />
  <D value="0.0000087043" />
  <E value="2" />
  <Tmin units="K" value="303.15" />
  <Tmax units="K" value="697.65" />
  </VaporPressure>
<HeatOfVaporization name="Heat of vaporization" units="J/kmol">
  <eqno value="106" />
  <A value="9.9721E+07" />
  <B value="1.0333" />
  <C value="0.08043" />
  <D value="-1.2193" />
  <E value="0.58124" />
  <Tmin units="K" value="304.19" />
  <Tmax units="K" value="697.65" />
  </HeatOfVaporization>
<SolidHeatCapacityCp name="Solid heat capacity" units="J/kmol/K">
  <eqno value="100" />
  <A value="-8031.4" />
  <B value="1109.1" />
  <C value="-6.0897" />
  <D value="0.022423" />
  <E value="-0.000027975" />
  <Tmin units="K" value="10" />
  <Tmax units="K" value="304.19" />
  </SolidHeatCapacityCp>
<LiquidHeatCapacityCp name="Liquid heat capacity" units="J/kmol/K">
  <eqno value="16" />
  <A value="146600" />
  <B value="-116.23" />
  <C value="11.009" />
  <D value="0.0034596" />
  <E value="-0.0000033446" />
  <Tmin units="K" value="304.19" />
  <Tmax units="K" value="400" />
  </LiquidHeatCapacityCp>
<IdealGasHeatCapacityCp name="Ideal gas heat capacity" units="J/kmol/K">
  <eqno value="16" />
  <A value="64367" />
  <B value="-535.92" />
  <C value="12.871" />
  <D value="-0.000033383" />
  <E value="-2.2759E-09" />
  <Tmin units="K" value="150" />
  <Tmax units="K" value="1500" />
  </IdealGasHeatCapacityCp>
<SecondVirialCoefficient name="Second virial coefficient" units="m3/kmol">
  <eqno value="104" />
  <A value="0.19264" />
  <B value="-372.93" />
  <C value="-69.055" />
  <D value="-19860" />
  <E value="28563" />
  <Tmin units="K" value="313.15" />
  <Tmax units="K" value="1500" />
  </SecondVirialCoefficient>
<LiquidViscosity name="Liquid viscosity" units="Pa.s">
  <eqno value="101" />
  <A value="-455.0775" />
  <B value="20670.83" />
  <C value="67.87773" />
  <D value="-0.0000660983" />
  <E value="2" />
  <Tmin units="K" value="293.15" />
  <Tmax units="K" value="558.04" />
  </LiquidViscosity>
<VaporViscosity name="Vapour viscosity" units="Pa.s">
  <eqno value="102" />
  <A value="8.7371E-08" />
  <B value="0.80775" />
  <C value="98.538" />
  <D value="-0.0034513" />
  <Tmin units="K" value="304.19" />
  <Tmax units="K" value="1000" />
  </VaporViscosity>
<LiquidThermalConductivity name="Liquid thermal conductivity" units="W/m/K">
  <eqno value="16" />
  <A value="0.065471" />
  <B value="92.351" />
  <C value="-2.8415" />
  <D value="0.0012245" />
  <E value="-0.0000029956" />
  <Tmin units="K" value="293.15" />
  <Tmax units="K" value="464.15" />
  </LiquidThermalConductivity>
<VaporThermalConductivity name="Vapour thermal conductivity" units="W/m/K">
  <eqno value="102" />
  <A value="0.00018648" />
  <B value="0.9302" />
  <C value="709.37" />
  <D value="-0.0036596" />
  <Tmin units="K" value="304.19" />
  <Tmax units="K" value="1000" />
  </VaporThermalConductivity>
<SurfaceTension name="Surface tension" units="N/m">
  <eqno value="16" />
  <A value="-0.0094371" />
  <B value="291.18" />
  <C value="-4.9944" />
  <D value="0.0057186" />
  <E value="-0.0000083653" />
  <Tmin units="K" value="283.15" />
  <Tmax units="K" value="697.55" />
  </SurfaceTension>
<RPPHeatCapacityCp name="Ideal gas heat capacity (RPP)" units="J/kmol/K">
  <eqno value="100" />
  <A value="23912" />
  <B value="217.36" />
  <C value="0.71039" />
  <D value="-0.0011838" />
  <E value="5.1458E-07" />
  <Tmin units="K" value="50" />
  <Tmax units="K" value="1000" />
  </RPPHeatCapacityCp>
<RelativeStaticPermittivity name="Relative static permittivity" units="_">
  <eqno value="120" />
  <A value="-10.30921" />
  <B value="-5750" />
  <C value="-34.5" />
  <Tmin units="K" value="279.15" />
  <Tmax units="K" value="449.15" />
  </RelativeStaticPermittivity>
<AntoineVaporPressure name="Antoine" units="Pa">
  <eqno value="10" />
  <A value="21.629" />
  <B value="3891.6" />
  <C value="-79.086" />
  <Tmin units="K" value="419.41" />
  <Tmax units="K" value="625" />
  </AntoineVaporPressure>
<LiquidViscosityRPS name="Liquid viscosity (RPS)" units="Pa.s">
  <eqno value="13" />
  <A value="8.2341" />
  <B value="-0.06124" />
  <C value="0.000056109" />
  <Tmin units="K" value="293.15" />
  <Tmax units="K" value="558.04" />
  </LiquidViscosityRPS>
<COSTALDVolume name="COSTLD characteristic volume (V*)" units="m3/kmol" value="0.33928" />
<DiameterLJ name="Lennard Jones diameter" units="m" value="6.682421E-10" />
<EnergyLJ name="Lennard Jones energy" units="K" value="279.7063" />
<FullerVolume name="Fuller et al. diffusion volume" units="_" value="117.59" />
<MatthiasCopemanC2 name="Mathias-Copeman C2" units="_" value="-1.4627" />
<Parachor name="Parachor" units="kg0.25.m3/s0.5/kmol" value="0.0458" />
<SpecificGravity name="Specific gravity" units="_" value="1.03606" />
<Charge name="Charge" units="_" value="0" />
<CostaldAcentricFactor name="SRK acentric factor" units="_" value="0.43299" />
<WilsonVolume name="Wilson volume" units="m3/kmol" value="0.104368" />
<UniquacR name="UNIQUAC r" units="_" value="4.7567" />
<UniquacQ name="UNIQUAC q" units="_" value="3.888" />
<MatthiasCopemanC3 name="Mathias-Copeman C3" units="_" value="3.2512" />
<ChaoSeaderAcentricFactor name="Chao-Seader acentric factor" units="_" value="0.433455" />
<ChaoSeaderSolubilityParameter name="Chao-Seader solubility parameter" units="J0.5/m1.5" value="23397.9" />
<ChaoSeaderLiquidVolume name="Chao-Seader liquid volume" units="m3/kmol" value="0.104368" />
<UnifacVLE name="UNIFAC">
  <group id="10" value="4" />
  <group id="12" value="1" />
  <group id="18" value="1" />
  </UnifacVLE>
<UnifacLLE name="UNIFAC-LLE">
  <group id="9" value="4" />
  <group id="11" value="1" />
  <group id="18" value="1" />
  </UnifacLLE>
<Asog name="ASOG">
  <group id="1" value="1" />
  <group id="10" value="4" />
  <group id="11" value="2" />
  <group id="16" value="1" />
  </Asog>
<GCmethod name="PPR78">
  <group id="1" value="1" />
  <group id="7" value="4" />
  <group id="8" value="2" />
  <group id="41" value="1" />
  </GCmethod>
<Umr name="UMR">
  <group id="10" value="4" />
  <group id="12" value="1" />
  <group id="18" value="1" />
  </Umr>
<ModifiedUnifac name="Modified UNIFAC">
  <group id="1" value="1" />
  <group id="9" value="4" />
  <group id="10" value="2" />
  <group id="14" value="1" />
  </ModifiedUnifac>
<CAS name="CAS number" value="95-48-7" />
<Smiles name="SMILES" value="c1(O)c(C)cccc1" />
</compound>

