<compound>
<LibraryIndex name="Index" value="1287" />
<CompoundID name="Name" value="phthalic acid" />
<StructureFormula name="Structure" value="COOH(C6H4)COOH" />
<Family name="Family" value="53" />
<CriticalTemperature name="Critical temperature" units="K" value="943.0648" />
<CriticalPressure name="Critical pressure" units="Pa" value="4492234" />
<CriticalVolume name="Critical volume" units="m3/kmol" value="0.4235" />
<CriticalCompressibility name="Critical compressibility factor" units="_" value="0.242627" />
<NormalBoilingPointTemperature name="Normal boiling point" units="K" value="651.424" />
<NormalMeltingPointTemperature name="Melting point" units="K" value="483.15" />
<MolecularWeight name="Molecular weight" units="kg/kmol" value="166.1308" />
<LiquidVolumeAtNormalBoilingPoint name="Liquid molar volume at normal boiling point" units="m3/kmol" value="0.115821" />
<AcentricityFactor name="Acentric factor" units="_" value="1.16031" />
<RadiusOfGyration name="Radius of gyration" units="m" value="4.162787E-10" />
<SolubilityParameter name="Solubility parameter" units="J0.5/m1.5" value="29038.44" />
<DipoleMoment name="Dipole moment" units="Coulomb.m" value="8.67E-30" />
<VanDerWaalsVolume name="Van der Waals volume" units="m3/kmol" value="0.0828" />
<VanDerWaalsArea name="Van der Waals area" units="m2/kmol" value="1.072E+09" />
<HeatOfFormation name="IG heat of formation" units="J/kmol" value="-6.63E+08" />
<GibbsEnergyOfFormation name="IG Gibbs energy of formation" units="J/kmol" value="-5.42E+08" />
<AbsEntropy name="IG absolute entropy" units="J/kmol/K" value="442000" />
<HeatOfCombustion name="Standard net heat of combustion LHV" units="J/kmol" value="-3.0915E+09" />
<SolidDensity name="Solid density" units="kmol/m3">
  <eqno value="2" />
  <A value="8.5506" />
  <B value="0.0031229" />
  <C value="0" />
  <D value="0" />
  <E value="0" />
  <Tmin units="K" value="293.15" />
  <Tmax units="K" value="302.65" />
  </SolidDensity>
<LiquidDensity name="Liquid density" units="kmol/m3">
  <eqno value="105" />
  <A value="0.59385" />
  <B value="0.252" />
  <C value="800" />
  <D value="0.28571" />
  <Tmin units="K" value="464.15" />
  <Tmax units="K" value="800" />
  </LiquidDensity>
<VaporPressure name="Vapour pressure" units="Pa">
  <eqno value="101" />
  <A value="214.6186" />
  <B value="-21678.73" />
  <C value="-26.54136" />
  <D value="7.94063E-06" />
  <E value="2" />
  <Tmin units="K" value="464.15" />
  <Tmax units="K" value="800" />
  </VaporPressure>
<HeatOfVaporization name="Heat of vaporization" units="J/kmol">
  <eqno value="106" />
  <A value="1.16446E+08" />
  <B value="0.325842" />
  <C value="-0.000233021" />
  <D value="0.00216992" />
  <E value="0.484323" />
  <Tmin units="K" value="464.15" />
  <Tmax units="K" value="800" />
  </HeatOfVaporization>
<SolidHeatCapacityCp name="Solid heat capacity" units="J/kmol/K">
  <eqno value="100" />
  <A value="22693" />
  <B value="550.36" />
  <C value="-0.074278" />
  <D value="0.00058694" />
  <E value="-9.7751E-07" />
  <Tmin units="K" value="90" />
  <Tmax units="K" value="350" />
  </SolidHeatCapacityCp>
<LiquidHeatCapacityCp name="Liquid heat capacity" units="J/kmol/K">
  <eqno value="16" />
  <A value="126080" />
  <B value="73.955" />
  <C value="9.4222" />
  <D value="0.0070682" />
  <E value="-0.0000039598" />
  <Tmin units="K" value="464.15" />
  <Tmax units="K" value="600" />
  </LiquidHeatCapacityCp>
<IdealGasHeatCapacityCp name="Ideal gas heat capacity" units="J/kmol/K">
  <eqno value="16" />
  <A value="78972" />
  <B value="-814.12" />
  <C value="13.621" />
  <D value="-0.00057909" />
  <E value="1.2469E-07" />
  <Tmin units="K" value="273" />
  <Tmax units="K" value="1500" />
  </IdealGasHeatCapacityCp>
<LiquidViscosity name="Liquid viscosity" units="Pa.s">
  <eqno value="101" />
  <A value="-20.315" />
  <B value="4089.4" />
  <C value="0.87699" />
  <D value="-5.3713E-07" />
  <E value="2" />
  <Tmin units="K" value="464.15" />
  <Tmax units="K" value="651" />
  </LiquidViscosity>
<VaporViscosity name="Vapour viscosity" units="Pa.s">
  <eqno value="102" />
  <A value="5.1978E-08" />
  <B value="0.86126" />
  <C value="68.544" />
  <D value="-136.86" />
  <Tmin units="K" value="464.15" />
  <Tmax units="K" value="1000" />
  </VaporViscosity>
<LiquidThermalConductivity name="Liquid thermal conductivity" units="W/m/K">
  <eqno value="16" />
  <A value="-0.13007" />
  <B value="40.261" />
  <C value="-1.3314" />
  <D value="0.00027982" />
  <E value="-9.4309E-07" />
  <Tmin units="K" value="240" />
  <Tmax units="K" value="640" />
  </LiquidThermalConductivity>
<VaporThermalConductivity name="Vapour thermal conductivity" units="W/m/K">
  <eqno value="102" />
  <A value="0.00011576" />
  <B value="0.91053" />
  <C value="351.24" />
  <D value="130660" />
  <Tmin units="K" value="274" />
  <Tmax units="K" value="1000" />
  </VaporThermalConductivity>
<SurfaceTension name="Surface tension" units="N/m">
  <eqno value="16" />
  <A value="-0.035541" />
  <B value="-4.5485" />
  <C value="-2.2151" />
  <D value="-0.00053178" />
  <E value="-1.9436E-07" />
  <Tmin units="K" value="464.15" />
  <Tmax units="K" value="800" />
  </SurfaceTension>
<RPPHeatCapacityCp name="Ideal gas heat capacity (RPP)" units="J/kmol/K">
  <eqno value="4" />
  <A value="-52622.52" />
  <B value="719.7759" />
  <C value="-0.465185" />
  <D value="0.000108418" />
  <Tmin units="K" value="273" />
  <Tmax units="K" value="1500" />
  </RPPHeatCapacityCp>
<RelativeStaticPermittivity name="Relative static permittivity" units="_">
  <eqno value="120" />
  <A value="-4.903144" />
  <B value="-3000" />
  <C value="-18" />
  <Tmin units="K" value="274.15" />
  <Tmax units="K" value="444.15" />
  </RelativeStaticPermittivity>
<RacketParameter name="Rackett parameter" units="_" value="0.251142" />
<FullerVolume name="Fuller et al. diffusion volume" units="_" value="147.2" />
<Parachor name="Parachor" units="kg0.25.m3/s0.5/kmol" value="0.05874" />
<SpecificGravity name="Specific gravity" units="_" value="1.451" />
<Charge name="Charge" units="_" value="0" />
<UniquacR name="UNIQUAC r" units="_" value="5.456" />
<UniquacQ name="UNIQUAC q" units="_" value="4.288" />
<UnifacVLE name="UNIFAC">
  <group id="10" value="4" />
  <group id="11" value="2" />
  <group id="43" value="2" />
  </UnifacVLE>
<UnifacLLE name="UNIFAC-LLE">
  <group id="9" value="4" />
  <group id="10" value="2" />
  <group id="23" value="2" />
  </UnifacLLE>
<Asog name="ASOG">
  <group id="10" value="4" />
  <group id="11" value="2" />
  <group id="24" value="2" />
  </Asog>
<Umr name="UMR">
  <group id="10" value="4" />
  <group id="11" value="2" />
  <group id="43" value="2" />
  </Umr>
<ModifiedUnifac name="Modified UNIFAC">
  <group id="9" value="4" />
  <group id="10" value="2" />
  <group id="42" value="2" />
  </ModifiedUnifac>
<CAS name="CAS number" value="88-99-3" />
<Smiles name="SMILES" value="c1(C(=O)O)c(C(=O)O)cccc1" />
</compound>

