<compound>
<LibraryIndex name="Index" value="2271" />
<CompoundID name="Name" value="t-cinnamic acid" />
<StructureFormula name="Structure" value="C6H5CHCHCO2H" />
<Family name="Family" value="53" />
<CriticalTemperature name="Critical temperature" units="K" value="797" />
<CriticalPressure name="Critical pressure" units="Pa" value="3540000" />
<CriticalVolume name="Critical volume" units="m3/kmol" value="0.431" />
<CriticalCompressibility name="Critical compressibility factor" units="_" value="0.23" />
<NormalBoilingPointTemperature name="Normal boiling point" units="K" value="573.15" />
<NormalMeltingPointTemperature name="Melting point" units="K" value="406.65" />
<TriplePointTemperature name="Triple point temperature" units="K" value="406.15" />
<TriplePointPressure name="Triple point pressure" units="Pa" value="113.906" />
<MolecularWeight name="Molecular weight" units="kg/kmol" value="148.159" />
<LiquidVolumeAtNormalBoilingPoint name="Liquid molar volume at normal boiling point" units="m3/kmol" value="0.138743" />
<AcentricityFactor name="Acentric factor" units="_" value="0.712052" />
<RadiusOfGyration name="Radius of gyration" units="m" value="4.947E-10" />
<SolubilityParameter name="Solubility parameter" units="J0.5/m1.5" value="24050" />
<DipoleMoment name="Dipole moment" units="Coulomb.m" value="4.37E-30" />
<VanDerWaalsVolume name="Van der Waals volume" units="m3/kmol" value="0.08252" />
<VanDerWaalsArea name="Van der Waals area" units="m2/kmol" value="1.055E+09" />
<HeatOfFormation name="IG heat of formation" units="J/kmol" value="-2.30509E+08" />
<GibbsEnergyOfFormation name="IG Gibbs energy of formation" units="J/kmol" value="-1.25999E+08" />
<AbsEntropy name="IG absolute entropy" units="J/kmol/K" value="429000" />
<HeatOfFusionAtMeltingPoint name="Heat of fusion at melting point" units="J/kmol" value="2.264E+07" />
<HeatOfCombustion name="Standard net heat of combustion LHV" units="J/kmol" value="-4.301E+09" />
<SolidDensity name="Solid density" units="kmol/m3">
  <eqno value="100" />
  <A value="8.4199" />
  <B value="0" />
  <C value="0" />
  <D value="0" />
  <E value="0" />
  <Tmin units="K" value="277.15" />
  <Tmax units="K" value="277.15" />
  </SolidDensity>
<LiquidDensity name="Liquid density" units="kmol/m3">
  <eqno value="105" />
  <A value="0.58525" />
  <B value="0.25224" />
  <C value="797" />
  <D value="0.27352" />
  <Tmin units="K" value="406.15" />
  <Tmax units="K" value="797" />
  </LiquidDensity>
<VaporPressure name="Vapour pressure" units="Pa">
  <eqno value="16" />
  <A value="17.89141" />
  <B value="-14237.8" />
  <C value="53.7326" />
  <D value="-0.0412193" />
  <E value="0.0000189776" />
  <Tmin units="K" value="406.15" />
  <Tmax units="K" value="797" />
  </VaporPressure>
<HeatOfVaporization name="Heat of vaporization" units="J/kmol">
  <eqno value="16" />
  <A value="-16.98407" />
  <B value="-5.765729" />
  <C value="18.68174" />
  <D value="0.0000314317" />
  <E value="-0.0000022202" />
  <Tmin units="K" value="406.15" />
  <Tmax units="K" value="797" />
  </HeatOfVaporization>
<SolidHeatCapacityCp name="Solid heat capacity" units="J/kmol/K">
  <eqno value="100" />
  <A value="197260" />
  <B value="0" />
  <C value="0" />
  <D value="0" />
  <E value="0" />
  <Tmin units="K" value="323" />
  <Tmax units="K" value="323" />
  </SolidHeatCapacityCp>
<LiquidHeatCapacityCp name="Liquid heat capacity" units="J/kmol/K">
  <eqno value="100" />
  <A value="216600" />
  <B value="270.9" />
  <C value="0" />
  <D value="0" />
  <E value="0" />
  <Tmin units="K" value="406.15" />
  <Tmax units="K" value="573.15" />
  </LiquidHeatCapacityCp>
<IdealGasHeatCapacityCp name="Ideal gas heat capacity" units="J/kmol/K">
  <eqno value="16" />
  <A value="90000" />
  <B value="-500" />
  <C value="12.99417" />
  <D value="0" />
  <E value="0" />
  <Tmin units="K" value="255" />
  <Tmax units="K" value="1500" />
  </IdealGasHeatCapacityCp>
<LiquidViscosity name="Liquid viscosity" units="Pa.s">
  <eqno value="101" />
  <A value="-12.412" />
  <B value="2837.8" />
  <C value="-0.048727" />
  <D value="0" />
  <E value="0" />
  <Tmin units="K" value="406.15" />
  <Tmax units="K" value="573.15" />
  </LiquidViscosity>
<VaporViscosity name="Vapour viscosity" units="Pa.s">
  <eqno value="102" />
  <A value="8.313E-08" />
  <B value="0.8034" />
  <C value="122.1" />
  <D value="0" />
  <Tmin units="K" value="406.15" />
  <Tmax units="K" value="1000" />
  </VaporViscosity>
<LiquidThermalConductivity name="Liquid thermal conductivity" units="W/m/K">
  <eqno value="100" />
  <A value="0.24012" />
  <B value="-0.00021985" />
  <C value="0" />
  <D value="0" />
  <E value="0" />
  <Tmin units="K" value="406.15" />
  <Tmax units="K" value="630" />
  </LiquidThermalConductivity>
<VaporThermalConductivity name="Vapour thermal conductivity" units="W/m/K">
  <eqno value="102" />
  <A value="0.0002362" />
  <B value="0.8711" />
  <C value="768.2" />
  <D value="0" />
  <Tmin units="K" value="573.15" />
  <Tmax units="K" value="1000" />
  </VaporThermalConductivity>
<SurfaceTension name="Surface tension" units="N/m">
  <eqno value="106" />
  <A value="0.075223" />
  <B value="1.163" />
  <C value="0" />
  <D value="0" />
  <E value="0" />
  <Tmin units="K" value="406.15" />
  <Tmax units="K" value="797" />
  </SurfaceTension>
<AntoineVaporPressure name="Antoine" units="Pa">
  <eqno value="10" />
  <A value="22.08453" />
  <B value="4685.208" />
  <C value="-130.7782" />
  <Tmin units="K" value="400" />
  <Tmax units="K" value="797" />
  </AntoineVaporPressure>
<FullerVolume name="Fuller et al. diffusion volume" units="_" value="137.2" />
<Charge name="Charge" units="_" value="0" />
<CostaldAcentricFactor name="SRK acentric factor" units="_" value="0.712052" />
<WilsonVolume name="Wilson volume" units="m3/kmol" value="0.138743" />
<UniquacR name="UNIQUAC r" units="_" value="5.4397" />
<UniquacQ name="UNIQUAC q" units="_" value="4.211" />
<ChaoSeaderAcentricFactor name="Chao-Seader acentric factor" units="_" value="0.712052" />
<ChaoSeaderSolubilityParameter name="Chao-Seader solubility parameter" units="J0.5/m1.5" value="24050" />
<ChaoSeaderLiquidVolume name="Chao-Seader liquid volume" units="m3/kmol" value="0.138743" />
<UnifacVLE name="UNIFAC">
  <group id="6" value="1" />
  <group id="10" value="5" />
  <group id="11" value="1" />
  <group id="43" value="1" />
  </UnifacVLE>
<UnifacLLE name="UNIFAC-LLE">
  <group id="6" value="1" />
  <group id="9" value="5" />
  <group id="10" value="1" />
  <group id="23" value="1" />
  </UnifacLLE>
<Asog name="ASOG">
  <group id="6" value="1" />
  <group id="10" value="5" />
  <group id="11" value="1" />
  <group id="24" value="1" />
  </Asog>
<GCmethod name="PPR78">
  <group id="18" value="1" />
  <group id="7" value="5" />
  <group id="8" value="1" />
  </GCmethod>
<Umr name="UMR">
  <group id="6" value="1" />
  <group id="10" value="5" />
  <group id="11" value="1" />
  <group id="43" value="1" />
  </Umr>
<ModifiedUnifac name="Modified UNIFAC">
  <group id="6" value="1" />
  <group id="9" value="5" />
  <group id="10" value="1" />
  <group id="42" value="1" />
  </ModifiedUnifac>
<CAS name="CAS number" value="140-10-3" />
<Smiles name="SMILES" value="c1ccc(cc1)/C=C/C(=O)O" />
</compound>

