<compound>
<LibraryIndex name="Index" value="521" />
<CompoundID name="Name" value="tert-butylbenzene" />
<StructureFormula name="Structure" value="(C6H5)C(CH3)2CH3" />
<Family name="Family" value="17" />
<CriticalTemperature name="Critical temperature" units="K" value="660" />
<CriticalPressure name="Critical pressure" units="Pa" value="2970000" />
<CriticalVolume name="Critical volume" units="m3/kmol" value="0.46" />
<CriticalCompressibility name="Critical compressibility factor" units="_" value="0.266" />
<NormalBoilingPointTemperature name="Normal boiling point" units="K" value="442.3" />
<NormalMeltingPointTemperature name="Melting point" units="K" value="215.27" />
<TriplePointTemperature name="Triple point temperature" units="K" value="215.27" />
<TriplePointPressure name="Triple point pressure" units="Pa" value="0.0910321" />
<MolecularWeight name="Molecular weight" units="kg/kmol" value="134.2182" />
<LiquidVolumeAtNormalBoilingPoint name="Liquid molar volume at normal boiling point" units="m3/kmol" value="0.155605" />
<AcentricityFactor name="Acentric factor" units="_" value="0.267406" />
<RadiusOfGyration name="Radius of gyration" units="m" value="4.318E-10" />
<SolubilityParameter name="Solubility parameter" units="J0.5/m1.5" value="17130" />
<DipoleMoment name="Dipole moment" units="Coulomb.m" value="2.33E-30" />
<VanDerWaalsVolume name="Van der Waals volume" units="m3/kmol" value="0.09018" />
<VanDerWaalsArea name="Van der Waals area" units="m2/kmol" value="1.166E+09" />
<HeatOfFormation name="IG heat of formation" units="J/kmol" value="-2.26E+07" />
<GibbsEnergyOfFormation name="IG Gibbs energy of formation" units="J/kmol" value="1.4995E+08" />
<AbsEntropy name="IG absolute entropy" units="J/kmol/K" value="401400" />
<HeatOfFusionAtMeltingPoint name="Heat of fusion at melting point" units="J/kmol" value="8393000" />
<MatthiasCopemanC1 name="Mathias-Copeman C1" units="_" value="0.77053" />
<HeatOfCombustion name="Standard net heat of combustion LHV" units="J/kmol" value="-5.5547E+09" />
<SolidDensity name="Solid density" units="kmol/m3">
  <eqno value="2" />
  <A value="8.8005" />
  <B value="-0.0046306" />
  <C value="0" />
  <D value="0" />
  <E value="0" />
  <Tmin units="K" value="86.11" />
  <Tmax units="K" value="215.27" />
  </SolidDensity>
<LiquidDensity name="Liquid density" units="kmol/m3">
  <eqno value="105" />
  <A value="0.50957" />
  <B value="0.25071" />
  <C value="660" />
  <D value="0.30584" />
  <Tmin units="K" value="215.27" />
  <Tmax units="K" value="660" />
  </LiquidDensity>
<VaporPressure name="Vapour pressure" units="Pa">
  <eqno value="101" />
  <A value="87.574" />
  <B value="-8352.2" />
  <C value="-9.5118" />
  <D value="0.0000039953" />
  <E value="2" />
  <Tmin units="K" value="215.27" />
  <Tmax units="K" value="660" />
  </VaporPressure>
<HeatOfVaporization name="Heat of vaporization" units="J/kmol">
  <eqno value="106" />
  <A value="6.3167E+07" />
  <B value="0.45262" />
  <C value="0" />
  <D value="0" />
  <E value="0" />
  <Tmin units="K" value="215.27" />
  <Tmax units="K" value="660" />
  </HeatOfVaporization>
<SolidHeatCapacityCp name="Solid heat capacity" units="J/kmol/K">
  <eqno value="100" />
  <A value="44844" />
  <B value="-193.06" />
  <C value="10.001" />
  <D value="-0.051599" />
  <E value="0.00010323" />
  <Tmin units="K" value="92.2" />
  <Tmax units="K" value="215.27" />
  </SolidHeatCapacityCp>
<LiquidHeatCapacityCp name="Liquid heat capacity" units="J/kmol/K">
  <eqno value="16" />
  <A value="164930" />
  <B value="701.24" />
  <C value="1.184" />
  <D value="0.037122" />
  <E value="-0.000038006" />
  <Tmin units="K" value="215.27" />
  <Tmax units="K" value="325" />
  </LiquidHeatCapacityCp>
<IdealGasHeatCapacityCp name="Ideal gas heat capacity" units="J/kmol/K">
  <eqno value="16" />
  <A value="113750" />
  <B value="-776.86" />
  <C value="13.825" />
  <D value="-0.0005797" />
  <E value="1.6467E-07" />
  <Tmin units="K" value="200" />
  <Tmax units="K" value="1500" />
  </IdealGasHeatCapacityCp>
<SecondVirialCoefficient name="Second virial coefficient" units="m3/kmol">
  <eqno value="104" />
  <A value="0.31169" />
  <B value="-443.18" />
  <C value="-79.486" />
  <D value="-14909" />
  <E value="-8902.2" />
  <Tmin units="K" value="330" />
  <Tmax units="K" value="1815" />
  </SecondVirialCoefficient>
<LiquidViscosity name="Liquid viscosity" units="Pa.s">
  <eqno value="101" />
  <A value="-11.7" />
  <B value="1364.1" />
  <C value="0.038741" />
  <D value="-3.8013E-08" />
  <E value="2" />
  <Tmin units="K" value="215.27" />
  <Tmax units="K" value="550" />
  </LiquidViscosity>
<VaporViscosity name="Vapour viscosity" units="Pa.s">
  <eqno value="102" />
  <A value="7.2957E-07" />
  <B value="0.50871" />
  <C value="384.51" />
  <D value="-23.513" />
  <Tmin units="K" value="215.27" />
  <Tmax units="K" value="1000" />
  </VaporViscosity>
<LiquidThermalConductivity name="Liquid thermal conductivity" units="W/m/K">
  <eqno value="16" />
  <A value="0.052023" />
  <B value="-143.3" />
  <C value="-0.69673" />
  <D value="-0.0057333" />
  <E value="0.0000022627" />
  <Tmin units="K" value="215.27" />
  <Tmax units="K" value="442.3" />
  </LiquidThermalConductivity>
<VaporThermalConductivity name="Vapour thermal conductivity" units="W/m/K">
  <eqno value="102" />
  <A value="0.000018955" />
  <B value="1.2291" />
  <C value="130.74" />
  <D value="53349" />
  <Tmin units="K" value="215.27" />
  <Tmax units="K" value="1000" />
  </VaporThermalConductivity>
<SurfaceTension name="Surface tension" units="N/m">
  <eqno value="16" />
  <A value="-0.0065659" />
  <B value="74.035" />
  <C value="-3.5401" />
  <D value="0.001524" />
  <E value="-0.0000060556" />
  <Tmin units="K" value="215.27" />
  <Tmax units="K" value="660" />
  </SurfaceTension>
<RPPHeatCapacityCp name="Ideal gas heat capacity (RPP)" units="J/kmol/K">
  <eqno value="4" />
  <A value="-27299" />
  <B value="830.02" />
  <C value="-0.48525" />
  <D value="0.00010401" />
  <Tmin units="K" value="200" />
  <Tmax units="K" value="1500" />
  </RPPHeatCapacityCp>
<AntoineVaporPressure name="Antoine" units="Pa">
  <eqno value="10" />
  <A value="20.362" />
  <B value="3143.6" />
  <C value="-86.505" />
  <Tmin units="K" value="398.09" />
  <Tmax units="K" value="589.78" />
  </AntoineVaporPressure>
<LiquidViscosityRPS name="Liquid viscosity (RPS)" units="Pa.s">
  <eqno value="12" />
  <A value="-2.5924" />
  <B value="-0.013801" />
  <Tmin units="K" value="215.27" />
  <Tmax units="K" value="442.3" />
  </LiquidViscosityRPS>
<COSTALDVolume name="COSTLD characteristic volume (V*)" units="m3/kmol" value="0.495861" />
<DiameterLJ name="Lennard Jones diameter" units="m" value="7.057317E-10" />
<EnergyLJ name="Lennard Jones energy" units="K" value="366.4637" />
<RacketParameter name="Rackett parameter" units="_" value="0.266" />
<FullerVolume name="Fuller et al. diffusion volume" units="_" value="173.04" />
<MatthiasCopemanC2 name="Mathias-Copeman C2" units="_" value="0.84715" />
<Parachor name="Parachor" units="kg0.25.m3/s0.5/kmol" value="0.0635105" />
<SpecificGravity name="Specific gravity" units="_" value="0.871335" />
<Charge name="Charge" units="_" value="0" />
<CostaldAcentricFactor name="SRK acentric factor" units="_" value="0.267406" />
<WilsonVolume name="Wilson volume" units="m3/kmol" value="0.155605" />
<UniquacR name="UNIQUAC r" units="_" value="5.9452" />
<UniquacQ name="UNIQUAC q" units="_" value="4.584" />
<ApiSrkS2 name="API-SRK s2" units="_" value="0.018084" />
<MatthiasCopemanC3 name="Mathias-Copeman C3" units="_" value="-0.90376" />
<ChaoSeaderAcentricFactor name="Chao-Seader acentric factor" units="_" value="0.267406" />
<ChaoSeaderSolubilityParameter name="Chao-Seader solubility parameter" units="J0.5/m1.5" value="17130" />
<ChaoSeaderLiquidVolume name="Chao-Seader liquid volume" units="m3/kmol" value="0.155605" />
<UnifacVLE name="UNIFAC">
  <group id="1" value="3" />
  <group id="4" value="1" />
  <group id="10" value="5" />
  <group id="11" value="1" />
  </UnifacVLE>
<UnifacLLE name="UNIFAC-LLE">
  <group id="1" value="2" />
  <group id="2" value="1" />
  <group id="9" value="5" />
  <group id="13" value="1" />
  </UnifacLLE>
<Asog name="ASOG">
  <group id="1" value="3" />
  <group id="4" value="1" />
  <group id="10" value="5" />
  <group id="11" value="1" />
  </Asog>
<GCmethod name="PPR78">
  <group id="1" value="3" />
  <group id="4" value="1" />
  <group id="7" value="5" />
  <group id="8" value="1" />
  </GCmethod>
<Umr name="UMR">
  <group id="1" value="3" />
  <group id="4" value="1" />
  <group id="10" value="5" />
  <group id="11" value="1" />
  </Umr>
<ModifiedUnifac name="Modified UNIFAC">
  <group id="1" value="3" />
  <group id="4" value="1" />
  <group id="9" value="5" />
  <group id="10" value="1" />
  </ModifiedUnifac>
<CAS name="CAS number" value="98-06-6" />
<Smiles name="SMILES" value="c1(C(C)(C)C)ccccc1" />
</compound>

