<compound>
<LibraryIndex name="Index" value="1479" />
<CompoundID name="Name" value="tetrahydrofuran" />
<StructureFormula name="Structure" value="-CH2CH2CH2CH2O-" />
<Family name="Family" value="63" />
<CriticalTemperature name="Critical temperature" units="K" value="540.2" />
<CriticalPressure name="Critical pressure" units="Pa" value="5190000" />
<CriticalVolume name="Critical volume" units="m3/kmol" value="0.224" />
<CriticalCompressibility name="Critical compressibility factor" units="_" value="0.259" />
<NormalBoilingPointTemperature name="Normal boiling point" units="K" value="339.12" />
<NormalMeltingPointTemperature name="Melting point" units="K" value="164.65" />
<TriplePointTemperature name="Triple point temperature" units="K" value="164.65" />
<TriplePointPressure name="Triple point pressure" units="Pa" value="0.195542" />
<MolecularWeight name="Molecular weight" units="kg/kmol" value="72.10572" />
<LiquidVolumeAtNormalBoilingPoint name="Liquid molar volume at normal boiling point" units="m3/kmol" value="0.08171" />
<AcentricityFactor name="Acentric factor" units="_" value="0.225" />
<RadiusOfGyration name="Radius of gyration" units="m" value="2.694E-10" />
<SolubilityParameter name="Solubility parameter" units="J0.5/m1.5" value="18970" />
<DipoleMoment name="Dipole moment" units="Coulomb.m" value="5.44E-30" />
<VanDerWaalsVolume name="Van der Waals volume" units="m3/kmol" value="0.04348" />
<VanDerWaalsArea name="Van der Waals area" units="m2/kmol" value="5.43E+08" />
<HeatOfFormation name="IG heat of formation" units="J/kmol" value="-1.8418E+08" />
<GibbsEnergyOfFormation name="IG Gibbs energy of formation" units="J/kmol" value="-7.969E+07" />
<AbsEntropy name="IG absolute entropy" units="J/kmol/K" value="297290" />
<HeatOfFusionAtMeltingPoint name="Heat of fusion at melting point" units="J/kmol" value="8540000" />
<MatthiasCopemanC1 name="Mathias-Copeman C1" units="_" value="0.89818" />
<HeatOfCombustion name="Standard net heat of combustion LHV" units="J/kmol" value="-2.325E+09" />
<SolidDensity name="Solid density" units="kmol/m3">
  <eqno value="2" />
  <A value="17.756" />
  <B value="-0.011931" />
  <Tmin units="K" value="65.86" />
  <Tmax units="K" value="164.65" />
  </SolidDensity>
<LiquidDensity name="Liquid density" units="kmol/m3">
  <eqno value="105" />
  <A value="1.054" />
  <B value="0.25754" />
  <C value="540.2" />
  <D value="0.26776" />
  <Tmin units="K" value="164.65" />
  <Tmax units="K" value="540.15" />
  </LiquidDensity>
<VaporPressure name="Vapour pressure" units="Pa">
  <eqno value="101" />
  <A value="82.74347" />
  <B value="-6236.553" />
  <C value="-9.221137" />
  <D value="0.0000078089" />
  <E value="2" />
  <Tmin units="K" value="164.65" />
  <Tmax units="K" value="540.15" />
  </VaporPressure>
<HeatOfVaporization name="Heat of vaporization" units="J/kmol">
  <eqno value="106" />
  <A value="4.770629E+07" />
  <B value="0.8303" />
  <C value="-0.617577" />
  <D value="-0.253996" />
  <E value="0.501899" />
  <Tmin units="K" value="164.65" />
  <Tmax units="K" value="540.15" />
  </HeatOfVaporization>
<SolidHeatCapacityCp name="Solid heat capacity" units="J/kmol/K">
  <eqno value="100" />
  <A value="-21080" />
  <B value="1625.4" />
  <C value="-13.019" />
  <D value="0.054426" />
  <E value="-0.00007435" />
  <Tmin units="K" value="20" />
  <Tmax units="K" value="164.76" />
  </SolidHeatCapacityCp>
<LiquidHeatCapacityCp name="Liquid heat capacity" units="J/kmol/K">
  <eqno value="16" />
  <A value="83351" />
  <B value="774.14" />
  <C value="0.38273" />
  <D value="0.036255" />
  <E value="-0.00003559" />
  <Tmin units="K" value="164.65" />
  <Tmax units="K" value="339.12" />
  </LiquidHeatCapacityCp>
<IdealGasHeatCapacityCp name="Ideal gas heat capacity" units="J/kmol/K">
  <eqno value="16" />
  <A value="41616" />
  <B value="-744.85" />
  <C value="13.048" />
  <D value="-0.00029616" />
  <E value="7.4486E-08" />
  <Tmin units="K" value="150" />
  <Tmax units="K" value="1500" />
  </IdealGasHeatCapacityCp>
<SecondVirialCoefficient name="Second virial coefficient" units="m3/kmol">
  <eqno value="104" />
  <A value="0.13601" />
  <B value="-158.27" />
  <C value="-17.134" />
  <D value="-685.86" />
  <E value="573.36" />
  <Tmin units="K" value="223.15" />
  <Tmax units="K" value="1890.7" />
  </SecondVirialCoefficient>
<LiquidViscosity name="Liquid viscosity" units="Pa.s">
  <eqno value="101" />
  <A value="-10.047" />
  <B value="896.61" />
  <C value="-0.11864" />
  <D value="2.5625E-07" />
  <E value="2" />
  <Tmin units="K" value="164.65" />
  <Tmax units="K" value="440" />
  </LiquidViscosity>
<VaporViscosity name="Vapour viscosity" units="Pa.s">
  <eqno value="102" />
  <A value="3.3286E-07" />
  <B value="0.67758" />
  <C value="342.35" />
  <D value="-15667" />
  <Tmin units="K" value="164.65" />
  <Tmax units="K" value="1000" />
  </VaporViscosity>
<LiquidThermalConductivity name="Liquid thermal conductivity" units="W/m/K">
  <eqno value="16" />
  <A value="-0.22085" />
  <B value="9.5971" />
  <C value="-0.99496" />
  <D value="-0.00017415" />
  <E value="-6.4958E-07" />
  <Tmin units="K" value="164.65" />
  <Tmax units="K" value="433.56" />
  </LiquidThermalConductivity>
<VaporThermalConductivity name="Vapour thermal conductivity" units="W/m/K">
  <eqno value="102" />
  <A value="0.000010439" />
  <B value="1.4482" />
  <C value="729.36" />
  <D value="-9829.3" />
  <Tmin units="K" value="164.65" />
  <Tmax units="K" value="1000" />
  </VaporThermalConductivity>
<SurfaceTension name="Surface tension" units="N/m">
  <eqno value="16" />
  <A value="-0.036886" />
  <B value="4.45" />
  <C value="-2.3412" />
  <D value="-0.00098178" />
  <E value="-0.0000015349" />
  <Tmin units="K" value="164.65" />
  <Tmax units="K" value="540.15" />
  </SurfaceTension>
<RPPHeatCapacityCp name="Ideal gas heat capacity (RPP)" units="J/kmol/K">
  <eqno value="100" />
  <A value="42994" />
  <B value="-161.83" />
  <C value="1.3686" />
  <D value="-0.0016978" />
  <E value="6.6516E-07" />
  <Tmin units="K" value="50" />
  <Tmax units="K" value="1000" />
  </RPPHeatCapacityCp>
<RelativeStaticPermittivity name="Relative static permittivity" units="_">
  <eqno value="120" />
  <A value="-6.376" />
  <B value="-3760" />
  <C value="-22.56" />
  <Tmin units="K" value="275" />
  <Tmax units="K" value="445" />
  </RelativeStaticPermittivity>
<AntoineVaporPressure name="Antoine" units="Pa">
  <eqno value="10" />
  <A value="21.254" />
  <B value="2946.8" />
  <C value="-36.192" />
  <Tmin units="K" value="328.14" />
  <Tmax units="K" value="483.15" />
  </AntoineVaporPressure>
<LiquidViscosityRPS name="Liquid viscosity (RPS)" units="Pa.s">
  <eqno value="13" />
  <A value="0.1285" />
  <B value="-0.041831" />
  <C value="0.000052" />
  <Tmin units="K" value="164.65" />
  <Tmax units="K" value="373.15" />
  </LiquidViscosityRPS>
<COSTALDVolume name="COSTLD characteristic volume (V*)" units="m3/kmol" value="0.23149" />
<DiameterLJ name="Lennard Jones diameter" units="m" value="5.732815E-10" />
<EnergyLJ name="Lennard Jones energy" units="K" value="272.4877" />
<RacketParameter name="Rackett parameter" units="_" value="0.259" />
<FullerVolume name="Fuller et al. diffusion volume" units="_" value="88.19" />
<MatthiasCopemanC2 name="Mathias-Copeman C2" units="_" value="-0.66911" />
<Parachor name="Parachor" units="kg0.25.m3/s0.5/kmol" value="0.0332" />
<SpecificGravity name="Specific gravity" units="_" value="0.889" />
<Charge name="Charge" units="_" value="0" />
<CostaldAcentricFactor name="SRK acentric factor" units="_" value="0.22269" />
<WilsonVolume name="Wilson volume" units="m3/kmol" value="0.0819417" />
<UniquacR name="UNIQUAC r" units="_" value="2.94" />
<UniquacQ name="UNIQUAC q" units="_" value="2.4" />
<MatthiasCopemanC3 name="Mathias-Copeman C3" units="_" value="1.4245" />
<ChaoSeaderAcentricFactor name="Chao-Seader acentric factor" units="_" value="0.225" />
<ChaoSeaderSolubilityParameter name="Chao-Seader solubility parameter" units="J0.5/m1.5" value="19042.3" />
<ChaoSeaderLiquidVolume name="Chao-Seader liquid volume" units="m3/kmol" value="0.0819417" />
<UnifacVLE name="UNIFAC">
  <group id="2" value="3" />
  <group id="28" value="1" />
  </UnifacVLE>
<UnifacLLE name="UNIFAC-LLE">
  <group id="2" value="3" />
  <group id="30" value="1" />
  </UnifacLLE>
<Umr name="UMR">
  <group id="2" value="3" />
  <group id="28" value="1" />
  </Umr>
<ModifiedUnifac name="Modified UNIFAC">
  <group id="2" value="2" />
  <group id="27" value="1" />
  </ModifiedUnifac>
<CAS name="CAS number" value="109-99-9" />
<Smiles name="SMILES" value="C1COCC1" />
</compound>

