<compound>
<LibraryIndex name="Index" value="1762" />
<CompoundID name="Name" value="1-nitropropane" />
<StructureFormula name="Structure" value="CH3CH2CH2NO2" />
<Family name="Family" value="39" />
<CriticalTemperature name="Critical temperature" units="K" value="605" />
<CriticalPressure name="Critical pressure" units="Pa" value="4350000" />
<CriticalVolume name="Critical volume" units="m3/kmol" value="0.288" />
<CriticalCompressibility name="Critical compressibility factor" units="_" value="0.249" />
<NormalBoilingPointTemperature name="Normal boiling point" units="K" value="404.33" />
<NormalMeltingPointTemperature name="Melting point" units="K" value="169.16" />
<TriplePointTemperature name="Triple point temperature" units="K" value="169.16" />
<TriplePointPressure name="Triple point pressure" units="Pa" value="0.000688982" />
<MolecularWeight name="Molecular weight" units="kg/kmol" value="89.09318" />
<LiquidVolumeAtNormalBoilingPoint name="Liquid molar volume at normal boiling point" units="m3/kmol" value="0.0894679" />
<AcentricityFactor name="Acentric factor" units="_" value="0.412773" />
<RadiusOfGyration name="Radius of gyration" units="m" value="3.359E-10" />
<SolubilityParameter name="Solubility parameter" units="J0.5/m1.5" value="21290" />
<DipoleMoment name="Dipole moment" units="Coulomb.m" value="1.22E-29" />
<VanDerWaalsVolume name="Van der Waals volume" units="m3/kmol" value="0.05093" />
<VanDerWaalsArea name="Van der Waals area" units="m2/kmol" value="7.37E+08" />
<HeatOfFormation name="IG heat of formation" units="J/kmol" value="-1.24E+08" />
<GibbsEnergyOfFormation name="IG Gibbs energy of formation" units="J/kmol" value="335000" />
<AbsEntropy name="IG absolute entropy" units="J/kmol/K" value="355600" />
<HeatOfFusionAtMeltingPoint name="Heat of fusion at melting point" units="J/kmol" value="9220000" />
<MatthiasCopemanC1 name="Mathias-Copeman C1" units="_" value="1.09" />
<HeatOfCombustion name="Standard net heat of combustion LHV" units="J/kmol" value="-1.859E+09" />
<SolidDensity name="Solid density" units="kmol/m3">
  <eqno value="2" />
  <A value="15.957" />
  <B value="-0.010505" />
  <C value="0" />
  <D value="0" />
  <E value="0" />
  <Tmin units="K" value="67.66" />
  <Tmax units="K" value="169.16" />
  </SolidDensity>
<LiquidDensity name="Liquid density" units="kmol/m3">
  <eqno value="105" />
  <A value="0.85075" />
  <B value="0.24483" />
  <C value="605" />
  <D value="0.27413" />
  <Tmin units="K" value="169.16" />
  <Tmax units="K" value="605" />
  </LiquidDensity>
<VaporPressure name="Vapour pressure" units="Pa">
  <eqno value="101" />
  <A value="38.65807" />
  <B value="-5750.644" />
  <C value="-2.115655" />
  <D value="-1.225423E-06" />
  <E value="2" />
  <Tmin units="K" value="169.16" />
  <Tmax units="K" value="605" />
  </VaporPressure>
<HeatOfVaporization name="Heat of vaporization" units="J/kmol">
  <eqno value="106" />
  <A value="5.6307E+07" />
  <B value="0.47767" />
  <C value="-0.18338" />
  <D value="0.057255" />
  <E value="-0.028311" />
  <Tmin units="K" value="169.16" />
  <Tmax units="K" value="605" />
  </HeatOfVaporization>
<SolidHeatCapacityCp name="Solid heat capacity" units="J/kmol/K">
  <eqno value="1" />
  <A value="131170" />
  <Tmin units="K" value="0" />
  <Tmax units="K" value="605" />
  </SolidHeatCapacityCp>
<LiquidHeatCapacityCp name="Liquid heat capacity" units="J/kmol/K">
  <eqno value="16" />
  <A value="-8835.6" />
  <B value="176.43" />
  <C value="9.53" />
  <D value="0.0096176" />
  <E value="-0.0000099253" />
  <Tmin units="K" value="169.16" />
  <Tmax units="K" value="404.33" />
  </LiquidHeatCapacityCp>
<IdealGasHeatCapacityCp name="Ideal gas heat capacity" units="J/kmol/K">
  <eqno value="16" />
  <A value="57745" />
  <B value="-538.37" />
  <C value="12.483" />
  <D value="0.00011202" />
  <E value="-5.1502E-08" />
  <Tmin units="K" value="150" />
  <Tmax units="K" value="1500" />
  </IdealGasHeatCapacityCp>
<SecondVirialCoefficient name="Second virial coefficient" units="m3/kmol">
  <eqno value="104" />
  <A value="0.18935" />
  <B value="-215.56" />
  <C value="-56.681" />
  <D value="-61127" />
  <E value="111790" />
  <Tmin units="K" value="302.5" />
  <Tmax units="K" value="1934.5" />
  </SecondVirialCoefficient>
<LiquidViscosity name="Liquid viscosity" units="Pa.s">
  <eqno value="101" />
  <A value="-19.997" />
  <B value="1653" />
  <C value="1.2605" />
  <D value="0.0000015194" />
  <E value="2" />
  <Tmin units="K" value="240" />
  <Tmax units="K" value="404.33" />
  </LiquidViscosity>
<VaporViscosity name="Vapour viscosity" units="Pa.s">
  <eqno value="102" />
  <A value="1.7108E-07" />
  <B value="0.7401" />
  <C value="220.03" />
  <D value="-15.073" />
  <Tmin units="K" value="169.16" />
  <Tmax units="K" value="1000" />
  </VaporViscosity>
<LiquidThermalConductivity name="Liquid thermal conductivity" units="W/m/K">
  <eqno value="16" />
  <A value="-0.068381" />
  <B value="13.221" />
  <C value="-1.3628" />
  <D value="-0.00024357" />
  <E value="-0.0000012535" />
  <Tmin units="K" value="169.16" />
  <Tmax units="K" value="404.33" />
  </LiquidThermalConductivity>
<VaporThermalConductivity name="Vapour thermal conductivity" units="W/m/K">
  <eqno value="102" />
  <A value="0.0022117" />
  <B value="0.61538" />
  <C value="875.34" />
  <D value="312410" />
  <Tmin units="K" value="169.16" />
  <Tmax units="K" value="1000" />
  </VaporThermalConductivity>
<SurfaceTension name="Surface tension" units="N/m">
  <eqno value="16" />
  <A value="-0.035529" />
  <B value="0.58517" />
  <C value="-2.3314" />
  <D value="-0.00099947" />
  <E value="-0.0000011138" />
  <Tmin units="K" value="169.16" />
  <Tmax units="K" value="605" />
  </SurfaceTension>
<RPPHeatCapacityCp name="Ideal gas heat capacity (RPP)" units="J/kmol/K">
  <eqno value="4" />
  <A value="8797.2" />
  <B value="373.51" />
  <C value="-0.1991" />
  <D value="0.000038609" />
  <Tmin units="K" value="150" />
  <Tmax units="K" value="1500" />
  </RPPHeatCapacityCp>
<AntoineVaporPressure name="Antoine" units="Pa">
  <eqno value="10" />
  <A value="21.552" />
  <B value="3564.5" />
  <C value="-49.073" />
  <Tmin units="K" value="363.15" />
  <Tmax units="K" value="536.18" />
  </AntoineVaporPressure>
<LiquidViscosityRPS name="Liquid viscosity (RPS)" units="Pa.s">
  <eqno value="12" />
  <A value="-3.6872" />
  <B value="-0.011404" />
  <Tmin units="K" value="240" />
  <Tmax units="K" value="404.33" />
  </LiquidViscosityRPS>
<COSTALDVolume name="COSTLD characteristic volume (V*)" units="m3/kmol" value="0.270875" />
<DiameterLJ name="Lennard Jones diameter" units="m" value="6.535366E-10" />
<EnergyLJ name="Lennard Jones energy" units="K" value="264.8416" />
<RacketParameter name="Rackett parameter" units="_" value="0.249" />
<FullerVolume name="Fuller et al. diffusion volume" units="_" value="80.63" />
<MatthiasCopemanC2 name="Mathias-Copeman C2" units="_" value="0" />
<Parachor name="Parachor" units="kg0.25.m3/s0.5/kmol" value="0.0376918" />
<SpecificGravity name="Specific gravity" units="_" value="1.006497" />
<Charge name="Charge" units="_" value="0" />
<CostaldAcentricFactor name="SRK acentric factor" units="_" value="0.412773" />
<WilsonVolume name="Wilson volume" units="m3/kmol" value="0.0894679" />
<UniquacR name="UNIQUAC r" units="_" value="3.3573" />
<UniquacQ name="UNIQUAC q" units="_" value="2.948" />
<MatthiasCopemanC3 name="Mathias-Copeman C3" units="_" value="0" />
<ChaoSeaderAcentricFactor name="Chao-Seader acentric factor" units="_" value="0.412773" />
<ChaoSeaderSolubilityParameter name="Chao-Seader solubility parameter" units="J0.5/m1.5" value="21290" />
<ChaoSeaderLiquidVolume name="Chao-Seader liquid volume" units="m3/kmol" value="0.0894679" />
<UnifacVLE name="UNIFAC">
  <group id="1" value="1" />
  <group id="2" value="1" />
  <group id="56" value="1" />
  </UnifacVLE>
<UnifacLLE name="UNIFAC-LLE">
  <group id="1" value="1" />
  <group id="2" value="1" />
  <group id="45" value="1" />
  </UnifacLLE>
<Asog name="ASOG">
  <group id="1" value="1" />
  <group id="2" value="2" />
  <group id="33" value="1" />
  </Asog>
<Umr name="UMR">
  <group id="1" value="1" />
  <group id="2" value="1" />
  <group id="56" value="1" />
  </Umr>
<ModifiedUnifac name="Modified UNIFAC">
  <group id="1" value="1" />
  <group id="2" value="1" />
  <group id="55" value="1" />
  </ModifiedUnifac>
<CAS name="CAS number" value="108-03-2" />
<Smiles name="SMILES" value="CCCN(=O)=O" />
</compound>

