<compound>
<LibraryIndex name="Index" value="267" />
<CompoundID name="Name" value="1-octadecene" />
<StructureFormula name="Structure" value="CH3(CH2)15CHCH2" />
<Family name="Family" value="9" />
<CriticalTemperature name="Critical temperature" units="K" value="739.26" />
<CriticalPressure name="Critical pressure" units="Pa" value="1140000" />
<CriticalVolume name="Critical volume" units="m3/kmol" value="1.153" />
<CriticalCompressibility name="Critical compressibility factor" units="_" value="0.248" />
<NormalBoilingPointTemperature name="Normal boiling point" units="K" value="587.97" />
<NormalMeltingPointTemperature name="Melting point" units="K" value="290.76" />
<TriplePointTemperature name="Triple point temperature" units="K" value="290.76" />
<TriplePointPressure name="Triple point pressure" units="Pa" value="0.00904973" />
<MolecularWeight name="Molecular weight" units="kg/kmol" value="252.4784" />
<LiquidVolumeAtNormalBoilingPoint name="Liquid molar volume at normal boiling point" units="m3/kmol" value="0.322151" />
<AcentricityFactor name="Acentric factor" units="_" value="0.8066" />
<RadiusOfGyration name="Radius of gyration" units="m" value="7.589E-10" />
<SolubilityParameter name="Solubility parameter" units="J0.5/m1.5" value="15980" />
<DipoleMoment name="Dipole moment" units="Coulomb.m" value="1.23E-30" />
<VanDerWaalsVolume name="Van der Waals volume" units="m3/kmol" value="0.18753" />
<VanDerWaalsArea name="Van der Waals area" units="m2/kmol" value="2.531E+09" />
<HeatOfFormation name="IG heat of formation" units="J/kmol" value="-2.8999E+08" />
<GibbsEnergyOfFormation name="IG Gibbs energy of formation" units="J/kmol" value="1.8618E+08" />
<AbsEntropy name="IG absolute entropy" units="J/kmol/K" value="856420" />
<HeatOfFusionAtMeltingPoint name="Heat of fusion at melting point" units="J/kmol" value="3.26E+07" />
<MatthiasCopemanC1 name="Mathias-Copeman C1" units="_" value="1.65562" />
<HeatOfCombustion name="Standard net heat of combustion LHV" units="J/kmol" value="-1.10504E+10" />
<SolidDensity name="Solid density" units="kmol/m3">
  <eqno value="100" />
  <A value="3.9913" />
  <B value="-0.0017159" />
  <C value="0" />
  <D value="0" />
  <E value="0" />
  <Tmin units="K" value="116.3" />
  <Tmax units="K" value="290.76" />
  </SolidDensity>
<LiquidDensity name="Liquid density" units="kmol/m3">
  <eqno value="105" />
  <A value="0.19547" />
  <B value="0.22718" />
  <C value="748" />
  <D value="0.28571" />
  <Tmin units="K" value="290.76" />
  <Tmax units="K" value="748" />
  </LiquidDensity>
<VaporPressure name="Vapour pressure" units="Pa">
  <eqno value="101" />
  <A value="134.11" />
  <B value="-15367" />
  <C value="-15.155" />
  <D value="4.6967E-18" />
  <E value="6" />
  <Tmin units="K" value="290.76" />
  <Tmax units="K" value="748" />
  </VaporPressure>
<HeatOfVaporization name="Heat of vaporization" units="J/kmol">
  <eqno value="106" />
  <A value="1.0607E+08" />
  <B value="0.44084" />
  <C value="0" />
  <D value="0" />
  <E value="0.0000001" />
  <Tmin units="K" value="290.76" />
  <Tmax units="K" value="748" />
  </HeatOfVaporization>
<SolidHeatCapacityCp name="Solid heat capacity" units="J/kmol/K">
  <eqno value="102" />
  <A value="5440" />
  <B value="0.79267" />
  <C value="0" />
  <D value="0" />
  <Tmin units="K" value="50" />
  <Tmax units="K" value="290.76" />
  </SolidHeatCapacityCp>
<LiquidHeatCapacityCp name="Liquid heat capacity" units="J/kmol/K">
  <eqno value="100" />
  <A value="286040" />
  <B value="871.57" />
  <C value="0" />
  <D value="0" />
  <E value="0" />
  <Tmin units="K" value="290.76" />
  <Tmax units="K" value="587.97" />
  </LiquidHeatCapacityCp>
<IdealGasHeatCapacityCp name="Ideal gas heat capacity" units="J/kmol/K">
  <eqno value="16" />
  <A value="244719.7" />
  <B value="-612.286" />
  <C value="14.08441" />
  <D value="-0.0000710737" />
  <E value="1.270317E-08" />
  <Tmin units="K" value="100" />
  <Tmax units="K" value="1500" />
  </IdealGasHeatCapacityCp>
<SecondVirialCoefficient name="Second virial coefficient" units="m3/kmol">
  <eqno value="104" />
  <A value="0.611" />
  <B value="-635.03" />
  <C value="-481.79" />
  <D value="-642530" />
  <E value="1202800" />
  <Tmin units="K" value="374" />
  <Tmax units="K" value="1500" />
  </SecondVirialCoefficient>
<LiquidViscosity name="Liquid viscosity" units="Pa.s">
  <eqno value="101" />
  <A value="-11.907" />
  <B value="1888.9" />
  <C value="0" />
  <D value="0" />
  <E value="0" />
  <Tmin units="K" value="290.76" />
  <Tmax units="K" value="598.4" />
  </LiquidViscosity>
<VaporViscosity name="Vapour viscosity" units="Pa.s">
  <eqno value="102" />
  <A value="0.000053594" />
  <B value="0.072753" />
  <C value="5656.7" />
  <D value="0" />
  <Tmin units="K" value="290.76" />
  <Tmax units="K" value="1000" />
  </VaporViscosity>
<LiquidThermalConductivity name="Liquid thermal conductivity" units="W/m/K">
  <eqno value="100" />
  <A value="0.20324" />
  <B value="-0.00019957" />
  <C value="0" />
  <D value="0" />
  <E value="0" />
  <Tmin units="K" value="290.76" />
  <Tmax units="K" value="587.97" />
  </LiquidThermalConductivity>
<VaporThermalConductivity name="Vapour thermal conductivity" units="W/m/K">
  <eqno value="102" />
  <A value="1.2676E-07" />
  <B value="1.9085" />
  <C value="0" />
  <D value="0" />
  <Tmin units="K" value="573.48" />
  <Tmax units="K" value="1000" />
  </VaporThermalConductivity>
<SurfaceTension name="Surface tension" units="N/m">
  <eqno value="106" />
  <A value="0.057541" />
  <B value="1.4107" />
  <C value="0" />
  <D value="0" />
  <E value="0.0000001" />
  <Tmin units="K" value="290.76" />
  <Tmax units="K" value="748" />
  </SurfaceTension>
<AntoineVaporPressure name="Antoine" units="Pa">
  <eqno value="10" />
  <A value="20.82453" />
  <B value="4203.014" />
  <C value="-135.3521" />
  <Tmin units="K" value="300" />
  <Tmax units="K" value="600" />
  </AntoineVaporPressure>
<FullerVolume name="Fuller et al. diffusion volume" units="_" value="369.36" />
<Parachor name="Parachor" units="kg0.25.m3/s0.5/kmol" value="0.131628" />
<SpecificGravity name="Specific gravity" units="_" value="0.789369" />
<Charge name="Charge" units="_" value="0" />
<CostaldAcentricFactor name="SRK acentric factor" units="_" value="0.8066" />
<WilsonVolume name="Wilson volume" units="m3/kmol" value="0.322151" />
<UniquacR name="UNIQUAC r" units="_" value="12.3625" />
<UniquacQ name="UNIQUAC q" units="_" value="10.124" />
<ChaoSeaderAcentricFactor name="Chao-Seader acentric factor" units="_" value="0.8066" />
<ChaoSeaderSolubilityParameter name="Chao-Seader solubility parameter" units="J0.5/m1.5" value="15980" />
<ChaoSeaderLiquidVolume name="Chao-Seader liquid volume" units="m3/kmol" value="0.322151" />
<UnifacVLE name="UNIFAC">
  <group id="1" value="1" />
  <group id="2" value="15" />
  <group id="5" value="1" />
  </UnifacVLE>
<UnifacLLE name="UNIFAC-LLE">
  <group id="1" value="1" />
  <group id="2" value="15" />
  <group id="5" value="1" />
  </UnifacLLE>
<Asog name="ASOG">
  <group id="1" value="1" />
  <group id="2" value="15" />
  <group id="5" value="1" />
  </Asog>
<GCmethod name="PPR78">
  <group id="1" value="1" />
  <group id="2" value="16" />
  <group id="18" value="1" />
  </GCmethod>
<Umr name="UMR">
  <group id="1" value="1" />
  <group id="2" value="15" />
  <group id="5" value="1" />
  </Umr>
<ModifiedUnifac name="Modified UNIFAC">
  <group id="1" value="1" />
  <group id="2" value="15" />
  <group id="5" value="1" />
  </ModifiedUnifac>
<CAS name="CAS number" value="112-88-9" />
<Smiles name="SMILES" value="C=CCCCCCCCCCCCCCCCC" />
</compound>

