<compound>
<LibraryIndex name="Index" value="209" />
<CompoundID name="Name" value="1-pentene" />
<StructureFormula name="Structure" value="CH2CH(CH2)2CH3" />
<Family name="Family" value="9" />
<CriticalTemperature name="Critical temperature" units="K" value="464.8" />
<CriticalPressure name="Critical pressure" units="Pa" value="3560000" />
<CriticalVolume name="Critical volume" units="m3/kmol" value="0.2984" />
<CriticalCompressibility name="Critical compressibility factor" units="_" value="0.275" />
<NormalBoilingPointTemperature name="Normal boiling point" units="K" value="303.11" />
<NormalMeltingPointTemperature name="Melting point" units="K" value="108.016" />
<TriplePointTemperature name="Triple point temperature" units="K" value="108.016" />
<TriplePointPressure name="Triple point pressure" units="Pa" value="0.000037" />
<MolecularWeight name="Molecular weight" units="kg/kmol" value="70.1329" />
<LiquidVolumeAtNormalBoilingPoint name="Liquid molar volume at normal boiling point" units="m3/kmol" value="0.1104" />
<AcentricityFactor name="Acentric factor" units="_" value="0.237" />
<RadiusOfGyration name="Radius of gyration" units="m" value="3.231E-10" />
<SolubilityParameter name="Solubility parameter" units="J0.5/m1.5" value="14410" />
<DipoleMoment name="Dipole moment" units="Coulomb.m" value="1.7E-30" />
<VanDerWaalsVolume name="Van der Waals volume" units="m3/kmol" value="0.05454" />
<VanDerWaalsArea name="Van der Waals area" units="m2/kmol" value="7.76E+08" />
<HeatOfFormation name="IG heat of formation" units="J/kmol" value="-2.162E+07" />
<GibbsEnergyOfFormation name="IG Gibbs energy of formation" units="J/kmol" value="7.837E+07" />
<AbsEntropy name="IG absolute entropy" units="J/kmol/K" value="346200" />
<HeatOfFusionAtMeltingPoint name="Heat of fusion at melting point" units="J/kmol" value="5937400" />
<MatthiasCopemanC1 name="Mathias-Copeman C1" units="_" value="0.85507" />
<HeatOfCombustion name="Standard net heat of combustion LHV" units="J/kmol" value="-3.13037E+09" />
<SolidDensity name="Solid density" units="kmol/m3">
  <eqno value="2" />
  <A value="14.614" />
  <B value="-0.014969" />
  <Tmin units="K" value="43.21" />
  <Tmax units="K" value="108.02" />
  </SolidDensity>
<LiquidDensity name="Liquid density" units="kmol/m3">
  <eqno value="105" />
  <A value="0.44335" />
  <B value="0.18566" />
  <C value="473.43" />
  <D value="0.23587" />
  <Tmin units="K" value="108.02" />
  <Tmax units="K" value="473.42" />
  </LiquidDensity>
<VaporPressure name="Vapour pressure" units="Pa">
  <eqno value="101" />
  <A value="39.52954" />
  <B value="-3893.399" />
  <C value="-2.686504" />
  <D value="1.952359E-06" />
  <E value="2" />
  <Tmin units="K" value="108.02" />
  <Tmax units="K" value="465.1" />
  </VaporPressure>
<HeatOfVaporization name="Heat of vaporization" units="J/kmol">
  <eqno value="106" />
  <A value="3.077277E+07" />
  <B value="-0.570706" />
  <C value="2.243398" />
  <D value="-2.258065" />
  <E value="0.928488" />
  <Tmin units="K" value="108.02" />
  <Tmax units="K" value="464.8" />
  </HeatOfVaporization>
<SolidHeatCapacityCp name="Solid heat capacity" units="J/kmol/K">
  <eqno value="100" />
  <A value="-9888.9" />
  <B value="900.04" />
  <C value="11.178" />
  <D value="-0.22603" />
  <E value="0.0010726" />
  <Tmin units="K" value="11" />
  <Tmax units="K" value="108.02" />
  </SolidHeatCapacityCp>
<LiquidHeatCapacityCp name="Liquid heat capacity" units="J/kmol/K">
  <eqno value="16" />
  <A value="92753" />
  <B value="117.21" />
  <C value="8.6537" />
  <D value="0.007447" />
  <E value="-0.0000026759" />
  <Tmin units="K" value="107.9" />
  <Tmax units="K" value="372" />
  </LiquidHeatCapacityCp>
<IdealGasHeatCapacityCp name="Ideal gas heat capacity" units="J/kmol/K">
  <eqno value="16" />
  <A value="66520" />
  <B value="-609.44" />
  <C value="12.683" />
  <D value="0.000062395" />
  <E value="-2.5354E-08" />
  <Tmin units="K" value="200" />
  <Tmax units="K" value="1500" />
  </IdealGasHeatCapacityCp>
<SecondVirialCoefficient name="Second virial coefficient" units="m3/kmol">
  <eqno value="104" />
  <A value="0.20469" />
  <B value="-223.9" />
  <C value="-8.6984" />
  <D value="-4100.9" />
  <E value="7778.7" />
  <Tmin units="K" value="228" />
  <Tmax units="K" value="1858.96" />
  </SecondVirialCoefficient>
<LiquidViscosity name="Liquid viscosity" units="Pa.s">
  <eqno value="101" />
  <A value="-10.79591" />
  <B value="682.8004" />
  <C value="0.00564316" />
  <D value="-9.176806E-07" />
  <E value="2" />
  <Tmin units="K" value="108.02" />
  <Tmax units="K" value="303.22" />
  </LiquidViscosity>
<VaporViscosity name="Vapour viscosity" units="Pa.s">
  <eqno value="102" />
  <A value="0.0000017549" />
  <B value="0.42295" />
  <C value="561.21" />
  <D value="-17046" />
  <Tmin units="K" value="108.02" />
  <Tmax units="K" value="1000" />
  </VaporViscosity>
<LiquidThermalConductivity name="Liquid thermal conductivity" units="W/m/K">
  <eqno value="16" />
  <A value="-0.010825" />
  <B value="-30.065" />
  <C value="-1.1172" />
  <D value="-0.0023327" />
  <E value="-0.0000015541" />
  <Tmin units="K" value="108.02" />
  <Tmax units="K" value="423.15" />
  </LiquidThermalConductivity>
<VaporThermalConductivity name="Vapour thermal conductivity" units="W/m/K">
  <eqno value="102" />
  <A value="0.0000026412" />
  <B value="1.549" />
  <C value="-2.5891" />
  <D value="24389" />
  <Tmin units="K" value="108.016" />
  <Tmax units="K" value="1000" />
  </VaporThermalConductivity>
<SurfaceTension name="Surface tension" units="N/m">
  <eqno value="16" />
  <A value="-0.011552" />
  <B value="7.0878" />
  <C value="-2.8382" />
  <D value="-0.0011232" />
  <E value="-0.0000052785" />
  <Tmin units="K" value="108.02" />
  <Tmax units="K" value="464.8" />
  </SurfaceTension>
<RPPHeatCapacityCp name="Ideal gas heat capacity (RPP)" units="J/kmol/K">
  <eqno value="100" />
  <A value="42229" />
  <B value="99.1" />
  <C value="0.65169" />
  <D value="-0.00091143" />
  <E value="3.6426E-07" />
  <Tmin units="K" value="200" />
  <Tmax units="K" value="1000" />
  </RPPHeatCapacityCp>
<RelativeStaticPermittivity name="Relative static permittivity" units="_">
  <eqno value="120" />
  <A value="-1.56045" />
  <B value="-1050" />
  <C value="-6.3" />
  <Tmin units="K" value="154" />
  <Tmax units="K" value="444.15" />
  </RelativeStaticPermittivity>
<AntoineVaporPressure name="Antoine" units="Pa">
  <eqno value="10" />
  <A value="21.064" />
  <B value="2629.6" />
  <C value="-27.471" />
  <Tmin units="K" value="283.15" />
  <Tmax units="K" value="413.6" />
  </AntoineVaporPressure>
<LiquidViscosityRPS name="Liquid viscosity (RPS)" units="Pa.s">
  <eqno value="13" />
  <A value="0.34306" />
  <B value="-0.057696" />
  <C value="0.000095563" />
  <Tmin units="K" value="108.02" />
  <Tmax units="K" value="303.22" />
  </LiquidViscosityRPS>
<COSTALDVolume name="COSTLD characteristic volume (V*)" units="m3/kmol" value="0.2951" />
<DiameterLJ name="Lennard Jones diameter" units="m" value="5.870098E-10" />
<EnergyLJ name="Lennard Jones energy" units="K" value="290.9223" />
<RacketParameter name="Rackett parameter" units="_" value="0.270141" />
<FullerVolume name="Fuller et al. diffusion volume" units="_" value="102.6" />
<MatthiasCopemanC2 name="Mathias-Copeman C2" units="_" value="0.01383" />
<Parachor name="Parachor" units="kg0.25.m3/s0.5/kmol" value="0.0391" />
<SpecificGravity name="Specific gravity" units="_" value="0.638723" />
<Charge name="Charge" units="_" value="0" />
<CostaldAcentricFactor name="SRK acentric factor" units="_" value="0.2824" />
<WilsonVolume name="Wilson volume" units="m3/kmol" value="0.110474" />
<UniquacR name="UNIQUAC r" units="_" value="3.5953" />
<UniquacQ name="UNIQUAC q" units="_" value="3.104" />
<ApiSrkS2 name="API-SRK s2" units="_" value="-0.00367" />
<MatthiasCopemanC3 name="Mathias-Copeman C3" units="_" value="-0.37379" />
<ChaoSeaderAcentricFactor name="Chao-Seader acentric factor" units="_" value="0.2198" />
<ChaoSeaderSolubilityParameter name="Chao-Seader solubility parameter" units="J0.5/m1.5" value="14420.78" />
<ChaoSeaderLiquidVolume name="Chao-Seader liquid volume" units="m3/kmol" value="0.1104" />
<UnifacVLE name="UNIFAC">
  <group id="1" value="1" />
  <group id="2" value="2" />
  <group id="5" value="1" />
  </UnifacVLE>
<UnifacLLE name="UNIFAC-LLE">
  <group id="1" value="1" />
  <group id="2" value="2" />
  <group id="5" value="1" />
  </UnifacLLE>
<Asog name="ASOG">
  <group id="1" value="1" />
  <group id="2" value="2" />
  <group id="5" value="1" />
  </Asog>
<GCmethod name="PPR78">
  <group id="1" value="1" />
  <group id="2" value="3" />
  <group id="18" value="1" />
  </GCmethod>
<Umr name="UMR">
  <group id="1" value="1" />
  <group id="2" value="2" />
  <group id="5" value="1" />
  </Umr>
<ModifiedUnifac name="Modified UNIFAC">
  <group id="1" value="1" />
  <group id="2" value="2" />
  <group id="5" value="1" />
  </ModifiedUnifac>
<CAS name="CAS number" value="109-67-1" />
<Smiles name="SMILES" value="C=CCCC" />
</compound>

