<compound>
<LibraryIndex name="Index" value="44" />
<CompoundID name="Name" value="2,2,3,3-tetramethylbutane" />
<StructureFormula name="Structure" value="(CH3)3CC(CH3)3" />
<Family name="Family" value="4" />
<CriticalTemperature name="Critical temperature" units="K" value="567.8" />
<CriticalPressure name="Critical pressure" units="Pa" value="2870000" />
<CriticalVolume name="Critical volume" units="m3/kmol" value="0.482" />
<CriticalCompressibility name="Critical compressibility factor" units="_" value="0.28" />
<NormalBoilingPointTemperature name="Normal boiling point" units="K" value="379.44" />
<NormalMeltingPointTemperature name="Melting point" units="K" value="373.84" />
<TriplePointTemperature name="Triple point temperature" units="K" value="373.96" />
<TriplePointPressure name="Triple point pressure" units="Pa" value="86930.2" />
<MolecularWeight name="Molecular weight" units="kg/kmol" value="114.2285" />
<LiquidVolumeAtNormalBoilingPoint name="Liquid molar volume at normal boiling point" units="m3/kmol" value="0.13902" />
<AcentricityFactor name="Acentric factor" units="_" value="0.248" />
<RadiusOfGyration name="Radius of gyration" units="m" value="3.8146E-10" />
<SolubilityParameter name="Solubility parameter" units="J0.5/m1.5" value="12790" />
<DipoleMoment name="Dipole moment" units="Coulomb.m" value="0" />
<VanDerWaalsVolume name="Van der Waals volume" units="m3/kmol" value="0.08868" />
<VanDerWaalsArea name="Van der Waals area" units="m2/kmol" value="1.272E+09" />
<HeatOfFormation name="IG heat of formation" units="J/kmol" value="-2.256E+08" />
<GibbsEnergyOfFormation name="IG Gibbs energy of formation" units="J/kmol" value="2.223E+07" />
<AbsEntropy name="IG absolute entropy" units="J/kmol/K" value="389360" />
<HeatOfFusionAtMeltingPoint name="Heat of fusion at melting point" units="J/kmol" value="7540000" />
<MatthiasCopemanC1 name="Mathias-Copeman C1" units="_" value="0.85792" />
<HeatOfCombustion name="Standard net heat of combustion LHV" units="J/kmol" value="-5.0558E+09" />
<SolidDensity name="Solid density" units="kmol/m3">
  <eqno value="2" />
  <A value="8.4225" />
  <B value="-0.0044705" />
  <C value="0.0035846" />
  <D value="-0.0000082784" />
  <E value="7.021E-09" />
  <Tmin units="K" value="183.15" />
  <Tmax units="K" value="373.96" />
  </SolidDensity>
<LiquidDensity name="Liquid density" units="kmol/m3">
  <eqno value="105" />
  <A value="0.61397" />
  <B value="0.27674" />
  <C value="567.8" />
  <D value="0.28198" />
  <Tmin units="K" value="367.55" />
  <Tmax units="K" value="557.79" />
  </LiquidDensity>
<VaporPressure name="Vapour pressure" units="Pa">
  <eqno value="101" />
  <A value="120.66" />
  <B value="-8500.6" />
  <C value="-14.863" />
  <D value="0.000010649" />
  <E value="2" />
  <Tmin units="K" value="373.96" />
  <Tmax units="K" value="568" />
  </VaporPressure>
<HeatOfVaporization name="Heat of vaporization" units="J/kmol">
  <eqno value="106" />
  <A value="5.3062E+07" />
  <B value="0.30484" />
  <C value="0.85323" />
  <D value="-1.2161" />
  <E value="0.48282" />
  <Tmin units="K" value="373.96" />
  <Tmax units="K" value="557.79" />
  </HeatOfVaporization>
<SolidHeatCapacityCp name="Solid heat capacity" units="J/kmol/K">
  <eqno value="100" />
  <A value="-145070" />
  <B value="3783.4" />
  <C value="-18.811" />
  <D value="0.04824" />
  <E value="-0.000044479" />
  <Tmin units="K" value="130.05" />
  <Tmax units="K" value="365.79" />
  </SolidHeatCapacityCp>
<LiquidHeatCapacityCp name="Liquid heat capacity" units="J/kmol/K">
  <eqno value="16" />
  <A value="239620" />
  <B value="55.905" />
  <C value="3.1054" />
  <D value="0.027363" />
  <E value="-0.000020376" />
  <Tmin units="K" value="373.96" />
  <Tmax units="K" value="426" />
  </LiquidHeatCapacityCp>
<IdealGasHeatCapacityCp name="Ideal gas heat capacity" units="J/kmol/K">
  <eqno value="16" />
  <A value="73914" />
  <B value="-415.76" />
  <C value="12.897" />
  <D value="0.00056384" />
  <E value="-1.6707E-07" />
  <Tmin units="K" value="200" />
  <Tmax units="K" value="1500" />
  </IdealGasHeatCapacityCp>
<SecondVirialCoefficient name="Second virial coefficient" units="m3/kmol">
  <eqno value="104" />
  <A value="0.27451" />
  <B value="-340.85" />
  <C value="-44.213" />
  <D value="-18.617" />
  <E value="-11352" />
  <Tmin units="K" value="284" />
  <Tmax units="K" value="1500" />
  </SecondVirialCoefficient>
<LiquidViscosity name="Liquid viscosity" units="Pa.s">
  <eqno value="101" />
  <A value="-17.538" />
  <B value="1603.5" />
  <C value="0.8804" />
  <D value="-0.0000034564" />
  <E value="2" />
  <Tmin units="K" value="293.15" />
  <Tmax units="K" value="473" />
  </LiquidViscosity>
<VaporViscosity name="Vapour viscosity" units="Pa.s">
  <eqno value="102" />
  <A value="7.9099E-07" />
  <B value="0.51128" />
  <C value="412.18" />
  <D value="-5389.1" />
  <Tmin units="K" value="373.96" />
  <Tmax units="K" value="1000" />
  </VaporViscosity>
<LiquidThermalConductivity name="Liquid thermal conductivity" units="W/m/K">
  <eqno value="16" />
  <A value="-0.0058143" />
  <B value="-354.88" />
  <C value="0.79351" />
  <D value="-0.0067293" />
  <E value="0.0000023134" />
  <Tmin units="K" value="373.96" />
  <Tmax units="K" value="426" />
  </LiquidThermalConductivity>
<VaporThermalConductivity name="Vapour thermal conductivity" units="W/m/K">
  <eqno value="102" />
  <A value="0.000012508" />
  <B value="1.3068" />
  <C value="-132.52" />
  <D value="121650" />
  <Tmin units="K" value="260" />
  <Tmax units="K" value="1000" />
  </VaporThermalConductivity>
<SurfaceTension name="Surface tension" units="N/m">
  <eqno value="16" />
  <A value="-0.0045024" />
  <B value="622.88" />
  <C value="-8.8445" />
  <D value="0.017204" />
  <E value="-0.000023129" />
  <Tmin units="K" value="293.15" />
  <Tmax units="K" value="557.79" />
  </SurfaceTension>
<RPPHeatCapacityCp name="Ideal gas heat capacity (RPP)" units="J/kmol/K">
  <eqno value="100" />
  <A value="6385.5" />
  <B value="606.54" />
  <C value="0.13794" />
  <D value="-0.00052564" />
  <E value="2.3996E-07" />
  <Tmin units="K" value="200" />
  <Tmax units="K" value="1000" />
  </RPPHeatCapacityCp>
<AntoineVaporPressure name="Antoine" units="Pa">
  <eqno value="10" />
  <A value="20.509" />
  <B value="2922.6" />
  <C value="-54.055" />
  <Tmin units="K" value="374" />
  <Tmax units="K" value="506.72" />
  </AntoineVaporPressure>
<LiquidViscosityRPS name="Liquid viscosity (RPS)" units="Pa.s">
  <eqno value="12" />
  <A value="-4.2178" />
  <B value="-0.011395" />
  <Tmin units="K" value="293.15" />
  <Tmax units="K" value="454" />
  </LiquidViscosityRPS>
<COSTALDVolume name="COSTLD characteristic volume (V*)" units="m3/kmol" value="0.486727" />
<DiameterLJ name="Lennard Jones diameter" units="m" value="6.740172E-10" />
<EnergyLJ name="Lennard Jones energy" units="K" value="379.208" />
<RacketParameter name="Rackett parameter" units="_" value="0.28" />
<FullerVolume name="Fuller et al. diffusion volume" units="_" value="168.78" />
<MatthiasCopemanC2 name="Mathias-Copeman C2" units="_" value="0" />
<Parachor name="Parachor" units="kg0.25.m3/s0.5/kmol" value="0.0605327" />
<SpecificGravity name="Specific gravity" units="_" value="0.726041" />
<Charge name="Charge" units="_" value="0" />
<CostaldAcentricFactor name="SRK acentric factor" units="_" value="0.248" />
<WilsonVolume name="Wilson volume" units="m3/kmol" value="0.13902" />
<UniquacR name="UNIQUAC r" units="_" value="5.8456" />
<UniquacQ name="UNIQUAC q" units="_" value="5.088" />
<ApiSrkS2 name="API-SRK s2" units="_" value="0.035734" />
<MatthiasCopemanC3 name="Mathias-Copeman C3" units="_" value="0" />
<ChaoSeaderAcentricFactor name="Chao-Seader acentric factor" units="_" value="0.248" />
<ChaoSeaderSolubilityParameter name="Chao-Seader solubility parameter" units="J0.5/m1.5" value="12790" />
<ChaoSeaderLiquidVolume name="Chao-Seader liquid volume" units="m3/kmol" value="0.13902" />
<UnifacVLE name="UNIFAC">
  <group id="1" value="6" />
  <group id="4" value="2" />
  </UnifacVLE>
<UnifacLLE name="UNIFAC-LLE">
  <group id="1" value="6" />
  <group id="4" value="2" />
  </UnifacLLE>
<Asog name="ASOG">
  <group id="1" value="6" />
  <group id="4" value="2" />
  </Asog>
<GCmethod name="PPR78">
  <group id="1" value="6" />
  <group id="4" value="2" />
  </GCmethod>
<Umr name="UMR">
  <group id="1" value="6" />
  <group id="4" value="2" />
  </Umr>
<ModifiedUnifac name="Modified UNIFAC">
  <group id="1" value="6" />
  <group id="4" value="2" />
  </ModifiedUnifac>
<CAS name="CAS number" value="594-82-1" />
<Smiles name="SMILES" value="CC(C)(C)C(C)(C)C" />
</compound>

