<compound>
<LibraryIndex name="Index" value="52" />
<CompoundID name="Name" value="2,2,3,4-tetramethylpentane" />
<StructureFormula name="Structure" value="CH3C(CH3)2CH(CH3)CH(CH3)CH3" />
<Family name="Family" value="4" />
<CriticalTemperature name="Critical temperature" units="K" value="592.7" />
<CriticalPressure name="Critical pressure" units="Pa" value="2530000" />
<CriticalVolume name="Critical volume" units="m3/kmol" value="0.49" />
<CriticalCompressibility name="Critical compressibility factor" units="_" value="0.258" />
<NormalBoilingPointTemperature name="Normal boiling point" units="K" value="406.18" />
<NormalMeltingPointTemperature name="Melting point" units="K" value="152.06" />
<TriplePointTemperature name="Triple point temperature" units="K" value="152.06" />
<TriplePointPressure name="Triple point pressure" units="Pa" value="0.000053591" />
<MolecularWeight name="Molecular weight" units="kg/kmol" value="128.2551" />
<LiquidVolumeAtNormalBoilingPoint name="Liquid molar volume at normal boiling point" units="m3/kmol" value="0.179229" />
<AcentricityFactor name="Acentric factor" units="_" value="0.301" />
<RadiusOfGyration name="Radius of gyration" units="m" value="4.16E-10" />
<SolubilityParameter name="Solubility parameter" units="J0.5/m1.5" value="14730" />
<DipoleMoment name="Dipole moment" units="Coulomb.m" value="0" />
<VanDerWaalsVolume name="Van der Waals volume" units="m3/kmol" value="0.09891" />
<VanDerWaalsArea name="Van der Waals area" units="m2/kmol" value="1.386E+09" />
<HeatOfFormation name="IG heat of formation" units="J/kmol" value="-2.37358E+08" />
<GibbsEnergyOfFormation name="IG Gibbs energy of formation" units="J/kmol" value="3.26352E+07" />
<AbsEntropy name="IG absolute entropy" units="J/kmol/K" value="452834" />
<HeatOfFusionAtMeltingPoint name="Heat of fusion at melting point" units="J/kmol" value="500000" />
<MatthiasCopemanC1 name="Mathias-Copeman C1" units="_" value="0.95146" />
<HeatOfCombustion name="Standard net heat of combustion LHV" units="J/kmol" value="-5.68208E+09" />
<SolidDensity name="Solid density" units="kmol/m3">
  <eqno value="2" />
  <A value="8.2756" />
  <B value="-0.0060479" />
  <C value="0" />
  <D value="0" />
  <E value="0" />
  <Tmin units="K" value="60.82" />
  <Tmax units="K" value="152.06" />
  </SolidDensity>
<LiquidDensity name="Liquid density" units="kmol/m3">
  <eqno value="105" />
  <A value="0.42889" />
  <B value="0.24425" />
  <C value="592.7" />
  <D value="0.24983" />
  <Tmin units="K" value="152.06" />
  <Tmax units="K" value="592.6" />
  </LiquidDensity>
<VaporPressure name="Vapour pressure" units="Pa">
  <eqno value="101" />
  <A value="137.07" />
  <B value="-9700.5" />
  <C value="-17.255" />
  <D value="0.000012062" />
  <E value="2" />
  <Tmin units="K" value="152.06" />
  <Tmax units="K" value="592.6" />
  </VaporPressure>
<HeatOfVaporization name="Heat of vaporization" units="J/kmol">
  <eqno value="106" />
  <A value="5.771831E+07" />
  <B value="1.016576" />
  <C value="-1.835135" />
  <D value="2.12911" />
  <E value="-0.921819" />
  <Tmin units="K" value="152.06" />
  <Tmax units="K" value="592.6" />
  </HeatOfVaporization>
<SolidHeatCapacityCp name="Solid heat capacity" units="J/kmol/K">
  <eqno value="1" />
  <A value="249210" />
  <Tmin units="K" value="0" />
  <Tmax units="K" value="592.7" />
  </SolidHeatCapacityCp>
<LiquidHeatCapacityCp name="Liquid heat capacity" units="J/kmol/K">
  <eqno value="16" />
  <A value="177720" />
  <B value="-50.337" />
  <C value="8.3416" />
  <D value="0.015008" />
  <E value="-0.000013849" />
  <Tmin units="K" value="152.06" />
  <Tmax units="K" value="406.18" />
  </LiquidHeatCapacityCp>
<IdealGasHeatCapacityCp name="Ideal gas heat capacity" units="J/kmol/K">
  <eqno value="16" />
  <A value="83946" />
  <B value="-465.16" />
  <C value="13.193" />
  <D value="0.000328" />
  <E value="-9.6189E-08" />
  <Tmin units="K" value="150" />
  <Tmax units="K" value="1500" />
  </IdealGasHeatCapacityCp>
<SecondVirialCoefficient name="Second virial coefficient" units="m3/kmol">
  <eqno value="104" />
  <A value="0.30123" />
  <B value="-401.73" />
  <C value="-67.509" />
  <D value="-13419" />
  <E value="21834" />
  <Tmin units="K" value="296.08" />
  <Tmax units="K" value="1892.08" />
  </SecondVirialCoefficient>
<LiquidViscosity name="Liquid viscosity" units="Pa.s">
  <eqno value="101" />
  <A value="-8.182" />
  <B value="1248.5" />
  <C value="-0.55988" />
  <D value="-2.1902E-07" />
  <E value="2" />
  <Tmin units="K" value="152.06" />
  <Tmax units="K" value="546.3" />
  </LiquidViscosity>
<VaporViscosity name="Vapour viscosity" units="Pa.s">
  <eqno value="102" />
  <A value="3.9083E-07" />
  <B value="0.57522" />
  <C value="220.52" />
  <D value="-776.34" />
  <Tmin units="K" value="152.06" />
  <Tmax units="K" value="1000" />
  </VaporViscosity>
<LiquidThermalConductivity name="Liquid thermal conductivity" units="W/m/K">
  <eqno value="16" />
  <A value="-0.045924" />
  <B value="4.3553" />
  <C value="-1.6529" />
  <D value="-0.00040588" />
  <E value="-0.000001389" />
  <Tmin units="K" value="152.06" />
  <Tmax units="K" value="406.18" />
  </LiquidThermalConductivity>
<VaporThermalConductivity name="Vapour thermal conductivity" units="W/m/K">
  <eqno value="102" />
  <A value="0.000019408" />
  <B value="1.2262" />
  <C value="-198.62" />
  <D value="159810" />
  <Tmin units="K" value="152.06" />
  <Tmax units="K" value="1000" />
  </VaporThermalConductivity>
<SurfaceTension name="Surface tension" units="N/m">
  <eqno value="16" />
  <A value="-0.012296" />
  <B value="16.67" />
  <C value="-3.0272" />
  <D value="-0.00038099" />
  <E value="-0.0000033807" />
  <Tmin units="K" value="152.06" />
  <Tmax units="K" value="592.6" />
  </SurfaceTension>
<RPPHeatCapacityCp name="Ideal gas heat capacity (RPP)" units="J/kmol/K">
  <eqno value="100" />
  <A value="-45081" />
  <B value="1026.9" />
  <C value="-0.66774" />
  <D value="0.00021534" />
  <E value="-2.1701E-08" />
  <Tmin units="K" value="200" />
  <Tmax units="K" value="1000" />
  </RPPHeatCapacityCp>
<RelativeStaticPermittivity name="Relative static permittivity" units="_">
  <eqno value="120" />
  <A value="-2.197557" />
  <B value="-1450" />
  <C value="-8.7" />
  <Tmin units="K" value="274.15" />
  <Tmax units="K" value="444.15" />
  </RelativeStaticPermittivity>
<AntoineVaporPressure name="Antoine" units="Pa">
  <eqno value="10" />
  <A value="20.558" />
  <B value="3122" />
  <C value="-60.513" />
  <Tmin units="K" value="360.74" />
  <Tmax units="K" value="523.04" />
  </AntoineVaporPressure>
<LiquidViscosityRPS name="Liquid viscosity (RPS)" units="Pa.s">
  <eqno value="12" />
  <A value="-1.3033" />
  <B value="-0.017906" />
  <Tmin units="K" value="152.06" />
  <Tmax units="K" value="474.08" />
  </LiquidViscosityRPS>
<COSTALDVolume name="COSTLD characteristic volume (V*)" units="m3/kmol" value="0.550036" />
<DiameterLJ name="Lennard Jones diameter" units="m" value="7.476529E-10" />
<EnergyLJ name="Lennard Jones energy" units="K" value="294.835" />
<RacketParameter name="Rackett parameter" units="_" value="0.258" />
<FullerVolume name="Fuller et al. diffusion volume" units="_" value="189.3" />
<MatthiasCopemanC2 name="Mathias-Copeman C2" units="_" value="0" />
<Parachor name="Parachor" units="kg0.25.m3/s0.5/kmol" value="0.066584" />
<SpecificGravity name="Specific gravity" units="_" value="0.743261" />
<Charge name="Charge" units="_" value="0" />
<CostaldAcentricFactor name="SRK acentric factor" units="_" value="0.301" />
<WilsonVolume name="Wilson volume" units="m3/kmol" value="0.179229" />
<UniquacR name="UNIQUAC r" units="_" value="6.5199" />
<UniquacQ name="UNIQUAC q" units="_" value="5.544" />
<ApiSrkS2 name="API-SRK s2" units="_" value="-0.002088" />
<MatthiasCopemanC3 name="Mathias-Copeman C3" units="_" value="0" />
<ChaoSeaderAcentricFactor name="Chao-Seader acentric factor" units="_" value="0.301" />
<ChaoSeaderSolubilityParameter name="Chao-Seader solubility parameter" units="J0.5/m1.5" value="14730" />
<ChaoSeaderLiquidVolume name="Chao-Seader liquid volume" units="m3/kmol" value="0.179229" />
<UnifacVLE name="UNIFAC">
  <group id="1" value="6" />
  <group id="3" value="2" />
  <group id="4" value="1" />
  </UnifacVLE>
<UnifacLLE name="UNIFAC-LLE">
  <group id="1" value="6" />
  <group id="3" value="2" />
  <group id="4" value="1" />
  </UnifacLLE>
<Asog name="ASOG">
  <group id="1" value="6" />
  <group id="3" value="2" />
  <group id="4" value="1" />
  </Asog>
<GCmethod name="PPR78">
  <group id="1" value="6" />
  <group id="3" value="2" />
  <group id="4" value="1" />
  </GCmethod>
<Umr name="UMR">
  <group id="1" value="6" />
  <group id="3" value="2" />
  <group id="4" value="1" />
  </Umr>
<ModifiedUnifac name="Modified UNIFAC">
  <group id="1" value="6" />
  <group id="3" value="2" />
  <group id="4" value="1" />
  </ModifiedUnifac>
<CAS name="CAS number" value="1186-53-4" />
<Smiles name="SMILES" value="CC(C)(C)C(C)C(C)C" />
</compound>

