<compound>
<LibraryIndex name="Index" value="32" />
<CompoundID name="Name" value="2,2-dimethylhexane" />
<StructureFormula name="Structure" value="CH3C(CH3)2CH2CH2CH2CH3" />
<Family name="Family" value="4" />
<CriticalTemperature name="Critical temperature" units="K" value="549.8" />
<CriticalPressure name="Critical pressure" units="Pa" value="2530000" />
<CriticalVolume name="Critical volume" units="m3/kmol" value="0.478" />
<CriticalCompressibility name="Critical compressibility factor" units="_" value="0.265" />
<NormalBoilingPointTemperature name="Normal boiling point" units="K" value="379.99" />
<NormalMeltingPointTemperature name="Melting point" units="K" value="151.97" />
<TriplePointTemperature name="Triple point temperature" units="K" value="151.97" />
<TriplePointPressure name="Triple point pressure" units="Pa" value="0.000215228" />
<MolecularWeight name="Molecular weight" units="kg/kmol" value="114.2285" />
<LiquidVolumeAtNormalBoilingPoint name="Liquid molar volume at normal boiling point" units="m3/kmol" value="0.16529" />
<AcentricityFactor name="Acentric factor" units="_" value="0.339" />
<RadiusOfGyration name="Radius of gyration" units="m" value="4.392E-10" />
<SolubilityParameter name="Solubility parameter" units="J0.5/m1.5" value="14580" />
<DipoleMoment name="Dipole moment" units="Coulomb.m" value="0" />
<VanDerWaalsVolume name="Van der Waals volume" units="m3/kmol" value="0.0886999" />
<VanDerWaalsArea name="Van der Waals area" units="m2/kmol" value="1.253E+09" />
<HeatOfFormation name="IG heat of formation" units="J/kmol" value="-2.24723E+08" />
<GibbsEnergyOfFormation name="IG Gibbs energy of formation" units="J/kmol" value="1.0711E+07" />
<AbsEntropy name="IG absolute entropy" units="J/kmol/K" value="432710" />
<HeatOfFusionAtMeltingPoint name="Heat of fusion at melting point" units="J/kmol" value="6778080" />
<MatthiasCopemanC1 name="Mathias-Copeman C1" units="_" value="1.0429" />
<HeatOfCombustion name="Standard net heat of combustion LHV" units="J/kmol" value="-5.06247E+09" />
<SolidDensity name="Solid density" units="kmol/m3">
  <eqno value="2" />
  <A value="8.8856" />
  <B value="-0.0064827" />
  <C value="0" />
  <D value="0" />
  <E value="0" />
  <Tmin units="K" value="60.79" />
  <Tmax units="K" value="151.97" />
  </SolidDensity>
<LiquidDensity name="Liquid density" units="kmol/m3">
  <eqno value="105" />
  <A value="0.54681" />
  <B value="0.26386" />
  <C value="549.8" />
  <D value="0.27774" />
  <Tmin units="K" value="151.97" />
  <Tmax units="K" value="549.8" />
  </LiquidDensity>
<VaporPressure name="Vapour pressure" units="Pa">
  <eqno value="101" />
  <A value="94.06922" />
  <B value="-7328.821" />
  <C value="-10.84298" />
  <D value="7.99047E-06" />
  <E value="2" />
  <Tmin units="K" value="151.97" />
  <Tmax units="K" value="549.8" />
  </VaporPressure>
<HeatOfVaporization name="Heat of vaporization" units="J/kmol">
  <eqno value="106" />
  <A value="6.211522E+07" />
  <B value="1.000418" />
  <C value="-0.588989" />
  <D value="-0.277913" />
  <E value="0.313577" />
  <Tmin units="K" value="151.97" />
  <Tmax units="K" value="549.8" />
  </HeatOfVaporization>
<SolidHeatCapacityCp name="Solid heat capacity" units="J/kmol/K">
  <eqno value="1" />
  <A value="223200" />
  <Tmin units="K" value="0" />
  <Tmax units="K" value="549.8" />
  </SolidHeatCapacityCp>
<LiquidHeatCapacityCp name="Liquid heat capacity" units="J/kmol/K">
  <eqno value="16" />
  <A value="125360" />
  <B value="373.89" />
  <C value="5.844" />
  <D value="0.022419" />
  <E value="-0.00002308" />
  <Tmin units="K" value="192.43" />
  <Tmax units="K" value="379.99" />
  </LiquidHeatCapacityCp>
<IdealGasHeatCapacityCp name="Ideal gas heat capacity" units="J/kmol/K">
  <eqno value="16" />
  <A value="97647" />
  <B value="-528.4" />
  <C value="13.112" />
  <D value="0.00027844" />
  <E value="-9.0187E-08" />
  <Tmin units="K" value="200" />
  <Tmax units="K" value="1500" />
  </IdealGasHeatCapacityCp>
<SecondVirialCoefficient name="Second virial coefficient" units="m3/kmol">
  <eqno value="104" />
  <A value="0.2681" />
  <B value="-314.72" />
  <C value="-51.398" />
  <D value="-8276.4" />
  <E value="13167" />
  <Tmin units="K" value="274.9" />
  <Tmax units="K" value="2000" />
  </SecondVirialCoefficient>
<LiquidViscosity name="Liquid viscosity" units="Pa.s">
  <eqno value="101" />
  <A value="-11.328" />
  <B value="1166.6" />
  <C value="-0.039718" />
  <D value="2.6889E-07" />
  <E value="2" />
  <Tmin units="K" value="151.97" />
  <Tmax units="K" value="400" />
  </LiquidViscosity>
<VaporViscosity name="Vapour viscosity" units="Pa.s">
  <eqno value="102" />
  <A value="0.0000018535" />
  <B value="0.38476" />
  <C value="528.24" />
  <D value="78.686" />
  <Tmin units="K" value="379.99" />
  <Tmax units="K" value="1000" />
  </VaporViscosity>
<LiquidThermalConductivity name="Liquid thermal conductivity" units="W/m/K">
  <eqno value="16" />
  <A value="-0.03878" />
  <B value="5.2314" />
  <C value="-1.6985" />
  <D value="-0.00038448" />
  <E value="-0.000001806" />
  <Tmin units="K" value="151.97" />
  <Tmax units="K" value="379.99" />
  </LiquidThermalConductivity>
<VaporThermalConductivity name="Vapour thermal conductivity" units="W/m/K">
  <eqno value="102" />
  <A value="0.000045965" />
  <B value="1.1142" />
  <C value="-113.91" />
  <D value="162780" />
  <Tmin units="K" value="151.97" />
  <Tmax units="K" value="1000" />
  </VaporThermalConductivity>
<SurfaceTension name="Surface tension" units="N/m">
  <eqno value="16" />
  <A value="-0.011295" />
  <B value="24.139" />
  <C value="-3.1748" />
  <D value="0.000033195" />
  <E value="-0.0000045811" />
  <Tmin units="K" value="151.97" />
  <Tmax units="K" value="549.8" />
  </SurfaceTension>
<RPPHeatCapacityCp name="Ideal gas heat capacity (RPP)" units="J/kmol/K">
  <eqno value="100" />
  <A value="28702" />
  <B value="459.14" />
  <C value="0.50436" />
  <D value="-0.00093712" />
  <E value="3.9344E-07" />
  <Tmin units="K" value="200" />
  <Tmax units="K" value="1000" />
  </RPPHeatCapacityCp>
<RelativeStaticPermittivity name="Relative static permittivity" units="_">
  <eqno value="120" />
  <A value="-1.796538" />
  <B value="-1200" />
  <C value="-7.2" />
  <Tmin units="K" value="274.15" />
  <Tmax units="K" value="444.15" />
  </RelativeStaticPermittivity>
<AntoineVaporPressure name="Antoine" units="Pa">
  <eqno value="10" />
  <A value="20.822" />
  <B value="3046.8" />
  <C value="-52.24" />
  <Tmin units="K" value="331.23" />
  <Tmax units="K" value="490.14" />
  </AntoineVaporPressure>
<LiquidViscosityRPS name="Liquid viscosity (RPS)" units="Pa.s">
  <eqno value="12" />
  <A value="-1.7156" />
  <B value="-0.019243" />
  <Tmin units="K" value="151.97" />
  <Tmax units="K" value="379.99" />
  </LiquidViscosityRPS>
<COSTALDVolume name="COSTLD characteristic volume (V*)" units="m3/kmol" value="0.486848" />
<DiameterLJ name="Lennard Jones diameter" units="m" value="7.180576E-10" />
<EnergyLJ name="Lennard Jones energy" units="K" value="301.1639" />
<RacketParameter name="Rackett parameter" units="_" value="0.265" />
<FullerVolume name="Fuller et al. diffusion volume" units="_" value="168.78" />
<MatthiasCopemanC2 name="Mathias-Copeman C2" units="_" value="-0.47174" />
<Parachor name="Parachor" units="kg0.25.m3/s0.5/kmol" value="0.061412" />
<SpecificGravity name="Specific gravity" units="_" value="0.700157" />
<Charge name="Charge" units="_" value="0" />
<CostaldAcentricFactor name="SRK acentric factor" units="_" value="0.339" />
<WilsonVolume name="Wilson volume" units="m3/kmol" value="0.16529" />
<UniquacR name="UNIQUAC r" units="_" value="5.8471" />
<UniquacQ name="UNIQUAC q" units="_" value="5.012" />
<ApiSrkS2 name="API-SRK s2" units="_" value="-0.000599" />
<MatthiasCopemanC3 name="Mathias-Copeman C3" units="_" value="1.0203" />
<ChaoSeaderAcentricFactor name="Chao-Seader acentric factor" units="_" value="0.339" />
<ChaoSeaderSolubilityParameter name="Chao-Seader solubility parameter" units="J0.5/m1.5" value="14580" />
<ChaoSeaderLiquidVolume name="Chao-Seader liquid volume" units="m3/kmol" value="0.16529" />
<UnifacVLE name="UNIFAC">
  <group id="1" value="4" />
  <group id="2" value="3" />
  <group id="4" value="1" />
  </UnifacVLE>
<UnifacLLE name="UNIFAC-LLE">
  <group id="1" value="4" />
  <group id="2" value="3" />
  <group id="4" value="1" />
  </UnifacLLE>
<Asog name="ASOG">
  <group id="1" value="4" />
  <group id="2" value="3" />
  <group id="4" value="1" />
  </Asog>
<GCmethod name="PPR78">
  <group id="1" value="4" />
  <group id="2" value="3" />
  <group id="4" value="1" />
  </GCmethod>
<Umr name="UMR">
  <group id="1" value="4" />
  <group id="2" value="3" />
  <group id="4" value="1" />
  </Umr>
<ModifiedUnifac name="Modified UNIFAC">
  <group id="1" value="4" />
  <group id="2" value="3" />
  <group id="4" value="1" />
  </ModifiedUnifac>
<CAS name="CAS number" value="590-73-8" />
<Smiles name="SMILES" value="CC(C)(C)CCCC" />
</compound>

