<compound>
<LibraryIndex name="Index" value="43" />
<CompoundID name="Name" value="2,3,4-trimethylpentane" />
<StructureFormula name="Structure" value="CH3CH(CH3)CH(CH3)CH(CH3)CH3" />
<Family name="Family" value="4" />
<CriticalTemperature name="Critical temperature" units="K" value="566.3" />
<CriticalPressure name="Critical pressure" units="Pa" value="2730000" />
<CriticalVolume name="Critical volume" units="m3/kmol" value="0.4562" />
<CriticalCompressibility name="Critical compressibility factor" units="_" value="0.267" />
<NormalBoilingPointTemperature name="Normal boiling point" units="K" value="386.62" />
<NormalMeltingPointTemperature name="Melting point" units="K" value="163.95" />
<TriplePointTemperature name="Triple point temperature" units="K" value="163.95" />
<TriplePointPressure name="Triple point pressure" units="Pa" value="0.00303425" />
<MolecularWeight name="Molecular weight" units="kg/kmol" value="114.2285" />
<LiquidVolumeAtNormalBoilingPoint name="Liquid molar volume at normal boiling point" units="m3/kmol" value="0.15974" />
<AcentricityFactor name="Acentric factor" units="_" value="0.316" />
<RadiusOfGyration name="Radius of gyration" units="m" value="4.061E-10" />
<SolubilityParameter name="Solubility parameter" units="J0.5/m1.5" value="14940" />
<DipoleMoment name="Dipole moment" units="Coulomb.m" value="0" />
<VanDerWaalsVolume name="Van der Waals volume" units="m3/kmol" value="0.08869" />
<VanDerWaalsArea name="Van der Waals area" units="m2/kmol" value="1.231E+09" />
<HeatOfFormation name="IG heat of formation" units="J/kmol" value="-2.1732E+08" />
<GibbsEnergyOfFormation name="IG Gibbs energy of formation" units="J/kmol" value="1.9E+07" />
<AbsEntropy name="IG absolute entropy" units="J/kmol/K" value="428400" />
<HeatOfFusionAtMeltingPoint name="Heat of fusion at melting point" units="J/kmol" value="9267560" />
<MatthiasCopemanC1 name="Mathias-Copeman C1" units="_" value="1.0137" />
<HeatOfCombustion name="Standard net heat of combustion LHV" units="J/kmol" value="-5.06943E+09" />
<SolidDensity name="Solid density" units="kmol/m3">
  <eqno value="2" />
  <A value="8.9934" />
  <B value="-0.006099" />
  <Tmin units="K" value="65.58" />
  <Tmax units="K" value="163.95" />
  </SolidDensity>
<LiquidDensity name="Liquid density" units="kmol/m3">
  <eqno value="105" />
  <A value="0.44061" />
  <B value="0.23657" />
  <C value="566.41" />
  <D value="0.23009" />
  <Tmin units="K" value="163.95" />
  <Tmax units="K" value="566.4" />
  </LiquidDensity>
<VaporPressure name="Vapour pressure" units="Pa">
  <eqno value="101" />
  <A value="83.41936" />
  <B value="-6957.084" />
  <C value="-9.207327" />
  <D value="0.0000063783" />
  <E value="2" />
  <Tmin units="K" value="163.95" />
  <Tmax units="K" value="566.4" />
  </VaporPressure>
<HeatOfVaporization name="Heat of vaporization" units="J/kmol">
  <eqno value="106" />
  <A value="5.6943E+07" />
  <B value="0.86512" />
  <C value="-0.77048" />
  <D value="0.30586" />
  <E value="0.021601" />
  <Tmin units="K" value="163.95" />
  <Tmax units="K" value="545.22" />
  </HeatOfVaporization>
<SolidHeatCapacityCp name="Solid heat capacity" units="J/kmol/K">
  <eqno value="100" />
  <A value="39.715" />
  <B value="1634.5" />
  <C value="-9.2594" />
  <D value="0.036339" />
  <E value="-0.000053437" />
  <Tmin units="K" value="160" />
  <Tmax units="K" value="169.5" />
  </SolidHeatCapacityCp>
<LiquidHeatCapacityCp name="Liquid heat capacity" units="J/kmol/K">
  <eqno value="16" />
  <A value="108880" />
  <B value="-13.14" />
  <C value="10.55" />
  <D value="0.00536" />
  <E value="-0.0000028819" />
  <Tmin units="K" value="163.63" />
  <Tmax units="K" value="320" />
  </LiquidHeatCapacityCp>
<IdealGasHeatCapacityCp name="Ideal gas heat capacity" units="J/kmol/K">
  <eqno value="16" />
  <A value="26624" />
  <B value="-291.65" />
  <C value="12.829" />
  <D value="0.00059553" />
  <E value="-0.0000001821" />
  <Tmin units="K" value="200" />
  <Tmax units="K" value="1500" />
  </IdealGasHeatCapacityCp>
<SecondVirialCoefficient name="Second virial coefficient" units="m3/kmol">
  <eqno value="104" />
  <A value="0.27457" />
  <B value="-374.14" />
  <C value="-48.597" />
  <D value="-10331" />
  <E value="20216" />
  <Tmin units="K" value="283.15" />
  <Tmax units="K" value="1807.15" />
  </SecondVirialCoefficient>
<LiquidViscosity name="Liquid viscosity" units="Pa.s">
  <eqno value="101" />
  <A value="-6.3467" />
  <B value="935.74" />
  <C value="-0.76144" />
  <D value="7.5545E-07" />
  <E value="2" />
  <Tmin units="K" value="163.95" />
  <Tmax units="K" value="489.51" />
  </LiquidViscosity>
<VaporViscosity name="Vapour viscosity" units="Pa.s">
  <eqno value="102" />
  <A value="6.7868E-07" />
  <B value="0.51422" />
  <C value="325.4" />
  <D value="22.347" />
  <Tmin units="K" value="386.62" />
  <Tmax units="K" value="1000" />
  </VaporViscosity>
<LiquidThermalConductivity name="Liquid thermal conductivity" units="W/m/K">
  <eqno value="16" />
  <A value="-0.048086" />
  <B value="3.7835" />
  <C value="-1.6094" />
  <D value="-0.00050636" />
  <E value="-0.0000013704" />
  <Tmin units="K" value="163.95" />
  <Tmax units="K" value="386.62" />
  </LiquidThermalConductivity>
<VaporThermalConductivity name="Vapour thermal conductivity" units="W/m/K">
  <eqno value="102" />
  <A value="0.000017892" />
  <B value="1.241" />
  <C value="-169.67" />
  <D value="132780" />
  <Tmin units="K" value="163.95" />
  <Tmax units="K" value="1000" />
  </VaporThermalConductivity>
<SurfaceTension name="Surface tension" units="N/m">
  <eqno value="16" />
  <A value="-0.013874" />
  <B value="14.819" />
  <C value="-2.967" />
  <D value="-0.00050079" />
  <E value="-0.0000033582" />
  <Tmin units="K" value="163.95" />
  <Tmax units="K" value="545.22" />
  </SurfaceTension>
<RPPHeatCapacityCp name="Ideal gas heat capacity (RPP)" units="J/kmol/K">
  <eqno value="4" />
  <A value="-9210.924" />
  <B value="785.5524" />
  <C value="-0.439805" />
  <D value="0.0000969271" />
  <Tmin units="K" value="200" />
  <Tmax units="K" value="1200" />
  </RPPHeatCapacityCp>
<RelativeStaticPermittivity name="Relative static permittivity" units="_">
  <eqno value="120" />
  <A value="-2.197557" />
  <B value="-1450" />
  <C value="-8.7" />
  <Tmin units="K" value="274.15" />
  <Tmax units="K" value="444.15" />
  </RelativeStaticPermittivity>
<AntoineVaporPressure name="Antoine" units="Pa">
  <eqno value="10" />
  <A value="20.9" />
  <B value="3174.1" />
  <C value="-48.02" />
  <Tmin units="K" value="340.98" />
  <Tmax units="K" value="505.05" />
  </AntoineVaporPressure>
<LiquidViscosityRPS name="Liquid viscosity (RPS)" units="Pa.s">
  <eqno value="13" />
  <A value="1.1859" />
  <B value="-0.043813" />
  <C value="0.0000493" />
  <Tmin units="K" value="163.95" />
  <Tmax units="K" value="443.95" />
  </LiquidViscosityRPS>
<COSTALDVolume name="COSTLD characteristic volume (V*)" units="m3/kmol" value="0.46889" />
<DiameterLJ name="Lennard Jones diameter" units="m" value="7.006212E-10" />
<EnergyLJ name="Lennard Jones energy" units="K" value="318.7133" />
<FullerVolume name="Fuller et al. diffusion volume" units="_" value="168.78" />
<MatthiasCopemanC2 name="Mathias-Copeman C2" units="_" value="-0.48909" />
<Parachor name="Parachor" units="kg0.25.m3/s0.5/kmol" value="0.0602" />
<SpecificGravity name="Specific gravity" units="_" value="0.721958" />
<Charge name="Charge" units="_" value="0" />
<CostaldAcentricFactor name="SRK acentric factor" units="_" value="0.31439" />
<WilsonVolume name="Wilson volume" units="m3/kmol" value="0.159513" />
<UniquacR name="UNIQUAC r" units="_" value="5.85" />
<UniquacQ name="UNIQUAC q" units="_" value="4.94" />
<ApiSrkS2 name="API-SRK s2" units="_" value="-0.004313" />
<MatthiasCopemanC3 name="Mathias-Copeman C3" units="_" value="0.96638" />
<ChaoSeaderAcentricFactor name="Chao-Seader acentric factor" units="_" value="0.316137" />
<ChaoSeaderSolubilityParameter name="Chao-Seader solubility parameter" units="J0.5/m1.5" value="14934.3" />
<ChaoSeaderLiquidVolume name="Chao-Seader liquid volume" units="m3/kmol" value="0.159513" />
<UnifacVLE name="UNIFAC">
  <group id="1" value="5" />
  <group id="3" value="3" />
  </UnifacVLE>
<UnifacLLE name="UNIFAC-LLE">
  <group id="1" value="5" />
  <group id="3" value="3" />
  </UnifacLLE>
<Asog name="ASOG">
  <group id="1" value="5" />
  <group id="3" value="3" />
  </Asog>
<GCmethod name="PPR78">
  <group id="1" value="5" />
  <group id="2" value="1" />
  <group id="3" value="1" />
  <group id="4" value="1" />
  </GCmethod>
<Umr name="UMR">
  <group id="1" value="5" />
  <group id="3" value="3" />
  </Umr>
<ModifiedUnifac name="Modified UNIFAC">
  <group id="1" value="5" />
  <group id="3" value="3" />
  </ModifiedUnifac>
<CAS name="CAS number" value="565-75-3" />
<Smiles name="SMILES" value="CC(C)C(C)C(C)C" />
</compound>

