<compound>
<LibraryIndex name="Index" value="34" />
<CompoundID name="Name" value="2,4-dimethylhexane" />
<StructureFormula name="Structure" value="CH3CH(CH3)CH2CH(CH3)CH2CH3" />
<Family name="Family" value="4" />
<CriticalTemperature name="Critical temperature" units="K" value="553.5" />
<CriticalPressure name="Critical pressure" units="Pa" value="2560000" />
<CriticalVolume name="Critical volume" units="m3/kmol" value="0.472" />
<CriticalCompressibility name="Critical compressibility factor" units="_" value="0.263" />
<NormalBoilingPointTemperature name="Normal boiling point" units="K" value="382.58" />
<MolecularWeight name="Molecular weight" units="kg/kmol" value="114.2285" />
<LiquidVolumeAtNormalBoilingPoint name="Liquid molar volume at normal boiling point" units="m3/kmol" value="0.16408" />
<AcentricityFactor name="Acentric factor" units="_" value="0.344" />
<RadiusOfGyration name="Radius of gyration" units="m" value="4.267E-10" />
<SolubilityParameter name="Solubility parameter" units="J0.5/m1.5" value="14650" />
<DipoleMoment name="Dipole moment" units="Coulomb.m" value="0" />
<VanDerWaalsVolume name="Van der Waals volume" units="m3/kmol" value="0.0886999" />
<VanDerWaalsArea name="Van der Waals area" units="m2/kmol" value="1.232E+09" />
<HeatOfFormation name="IG heat of formation" units="J/kmol" value="-2.19409E+08" />
<GibbsEnergyOfFormation name="IG Gibbs energy of formation" units="J/kmol" value="1.17152E+07" />
<AbsEntropy name="IG absolute entropy" units="J/kmol/K" value="447600" />
<HeatOfFusionAtMeltingPoint name="Heat of fusion at melting point" units="J/kmol" value="0" />
<MatthiasCopemanC1 name="Mathias-Copeman C1" units="_" value="1.0474" />
<HeatOfCombustion name="Standard net heat of combustion LHV" units="J/kmol" value="-5.06733E+09" />
<SolidDensity name="Solid density" units="kmol/m3">
  <eqno value="2" />
  <A value="7.32" />
  <B value="-8.5435E-17" />
  <C value="0" />
  <D value="0" />
  <E value="0" />
  <Tmin units="K" value="0" />
  <Tmax units="K" value="9.5" />
  </SolidDensity>
<LiquidDensity name="Liquid density" units="kmol/m3">
  <eqno value="105" />
  <A value="0.49412" />
  <B value="0.25086" />
  <C value="553.5" />
  <D value="0.26728" />
  <Tmin units="K" value="272.04" />
  <Tmax units="K" value="553.45" />
  </LiquidDensity>
<VaporPressure name="Vapour pressure" units="Pa">
  <eqno value="101" />
  <A value="110.28" />
  <B value="-8135.7" />
  <C value="-13.268" />
  <D value="0.0000097316" />
  <E value="2" />
  <Tmin units="K" value="272.04" />
  <Tmax units="K" value="553.5" />
  </VaporPressure>
<HeatOfVaporization name="Heat of vaporization" units="J/kmol">
  <eqno value="106" />
  <A value="5.4006E+07" />
  <B value="0.43973" />
  <C value="0.30966" />
  <D value="-0.70429" />
  <E value="0.35515" />
  <Tmin units="K" value="272.04" />
  <Tmax units="K" value="538.69" />
  </HeatOfVaporization>
<SolidHeatCapacityCp name="Solid heat capacity" units="J/kmol/K">
  <eqno value="1" />
  <A value="223200" />
  <Tmin units="K" value="0" />
  <Tmax units="K" value="553.5" />
  </SolidHeatCapacityCp>
<LiquidHeatCapacityCp name="Liquid heat capacity" units="J/kmol/K">
  <eqno value="16" />
  <A value="-373730" />
  <B value="38.479" />
  <C value="12.478" />
  <D value="0.0035274" />
  <E value="-0.0000034858" />
  <Tmin units="K" value="137.68" />
  <Tmax units="K" value="382.58" />
  </LiquidHeatCapacityCp>
<IdealGasHeatCapacityCp name="Ideal gas heat capacity" units="J/kmol/K">
  <eqno value="16" />
  <A value="68028" />
  <B value="-390.94" />
  <C value="12.9" />
  <D value="0.00049032" />
  <E value="-1.6117E-07" />
  <Tmin units="K" value="200" />
  <Tmax units="K" value="1500" />
  </IdealGasHeatCapacityCp>
<SecondVirialCoefficient name="Second virial coefficient" units="m3/kmol">
  <eqno value="104" />
  <A value="0.27345" />
  <B value="-357.14" />
  <C value="-46.872" />
  <D value="-11112" />
  <E value="22737" />
  <Tmin units="K" value="276.75" />
  <Tmax units="K" value="2000" />
  </SecondVirialCoefficient>
<LiquidViscosity name="Liquid viscosity" units="Pa.s">
  <eqno value="101" />
  <A value="-12.459" />
  <B value="1208.2" />
  <C value="0.16649" />
  <D value="-2.1296E-07" />
  <E value="2" />
  <Tmin units="K" value="272.04" />
  <Tmax units="K" value="400" />
  </LiquidViscosity>
<VaporViscosity name="Vapour viscosity" units="Pa.s">
  <eqno value="102" />
  <A value="0.0000013835" />
  <B value="0.41886" />
  <C value="453.95" />
  <D value="-1216.3" />
  <Tmin units="K" value="382.58" />
  <Tmax units="K" value="1000" />
  </VaporViscosity>
<LiquidThermalConductivity name="Liquid thermal conductivity" units="W/m/K">
  <eqno value="16" />
  <A value="-0.012272" />
  <B value="-146.3" />
  <C value="-0.49024" />
  <D value="-0.0043592" />
  <E value="0.0000013669" />
  <Tmin units="K" value="272.04" />
  <Tmax units="K" value="382.58" />
  </LiquidThermalConductivity>
<VaporThermalConductivity name="Vapour thermal conductivity" units="W/m/K">
  <eqno value="102" />
  <A value="0.000028277" />
  <B value="1.1747" />
  <C value="-150.01" />
  <D value="140960" />
  <Tmin units="K" value="152" />
  <Tmax units="K" value="1000" />
  </VaporThermalConductivity>
<SurfaceTension name="Surface tension" units="N/m">
  <eqno value="16" />
  <A value="-0.040538" />
  <B value="-89.906" />
  <C value="-1.6196" />
  <D value="-0.0034572" />
  <E value="0.0000015869" />
  <Tmin units="K" value="273" />
  <Tmax units="K" value="553.5" />
  </SurfaceTension>
<RPPHeatCapacityCp name="Ideal gas heat capacity (RPP)" units="J/kmol/K">
  <eqno value="100" />
  <A value="-28036" />
  <B value="903.33" />
  <C value="-0.60421" />
  <D value="0.00018092" />
  <E value="-8.5639E-09" />
  <Tmin units="K" value="200" />
  <Tmax units="K" value="1000" />
  </RPPHeatCapacityCp>
<RelativeStaticPermittivity name="Relative static permittivity" units="_">
  <eqno value="120" />
  <A value="-1.796538" />
  <B value="-1200" />
  <C value="-7.2" />
  <Tmin units="K" value="274.15" />
  <Tmax units="K" value="444.15" />
  </RelativeStaticPermittivity>
<AntoineVaporPressure name="Antoine" units="Pa">
  <eqno value="10" />
  <A value="20.948" />
  <B value="3123.7" />
  <C value="-51.012" />
  <Tmin units="K" value="272.04" />
  <Tmax units="K" value="553.5" />
  </AntoineVaporPressure>
<LiquidViscosityRPS name="Liquid viscosity (RPS)" units="Pa.s">
  <eqno value="12" />
  <A value="-4.1397" />
  <B value="-0.011142" />
  <Tmin units="K" value="272.04" />
  <Tmax units="K" value="382.58" />
  </LiquidViscosityRPS>
<COSTALDVolume name="COSTLD characteristic volume (V*)" units="m3/kmol" value="0.486848" />
<DiameterLJ name="Lennard Jones diameter" units="m" value="7.215704E-10" />
<EnergyLJ name="Lennard Jones energy" units="K" value="295.0337" />
<RacketParameter name="Rackett parameter" units="_" value="0.263" />
<FullerVolume name="Fuller et al. diffusion volume" units="_" value="168.78" />
<MatthiasCopemanC2 name="Mathias-Copeman C2" units="_" value="-0.46325" />
<Parachor name="Parachor" units="kg0.25.m3/s0.5/kmol" value="0.0616382" />
<SpecificGravity name="Specific gravity" units="_" value="0.701075" />
<Charge name="Charge" units="_" value="0" />
<CostaldAcentricFactor name="SRK acentric factor" units="_" value="0.344" />
<WilsonVolume name="Wilson volume" units="m3/kmol" value="0.16408" />
<UniquacR name="UNIQUAC r" units="_" value="5.847" />
<UniquacQ name="UNIQUAC q" units="_" value="4.928" />
<ApiSrkS2 name="API-SRK s2" units="_" value="-0.001943" />
<MatthiasCopemanC3 name="Mathias-Copeman C3" units="_" value="0.99872" />
<ChaoSeaderAcentricFactor name="Chao-Seader acentric factor" units="_" value="0.344" />
<ChaoSeaderSolubilityParameter name="Chao-Seader solubility parameter" units="J0.5/m1.5" value="14650" />
<ChaoSeaderLiquidVolume name="Chao-Seader liquid volume" units="m3/kmol" value="0.16408" />
<UnifacVLE name="UNIFAC">
  <group id="1" value="4" />
  <group id="2" value="2" />
  <group id="3" value="2" />
  </UnifacVLE>
<UnifacLLE name="UNIFAC-LLE">
  <group id="1" value="4" />
  <group id="2" value="2" />
  <group id="3" value="2" />
  </UnifacLLE>
<Asog name="ASOG">
  <group id="1" value="4" />
  <group id="2" value="2" />
  <group id="3" value="2" />
  </Asog>
<GCmethod name="PPR78">
  <group id="1" value="4" />
  <group id="2" value="2" />
  <group id="3" value="2" />
  </GCmethod>
<Umr name="UMR">
  <group id="1" value="4" />
  <group id="2" value="2" />
  <group id="3" value="2" />
  </Umr>
<ModifiedUnifac name="Modified UNIFAC">
  <group id="1" value="4" />
  <group id="2" value="2" />
  <group id="3" value="2" />
  </ModifiedUnifac>
<CAS name="CAS number" value="589-43-5" />
<Smiles name="SMILES" value="CC(C)CC(C)CC" />
</compound>

