<compound>
<LibraryIndex name="Index" value="2743" />
<CompoundID name="Name" value="2,4-dinitrotoluene" />
<StructureFormula name="Structure" value="CH3(C6H3)(NO2)2" />
<Family name="Family" value="39" />
<CriticalTemperature name="Critical temperature" units="K" value="814" />
<CriticalPressure name="Critical pressure" units="Pa" value="3400000" />
<CriticalVolume name="Critical volume" units="m3/kmol" value="0.487" />
<CriticalCompressibility name="Critical compressibility factor" units="_" value="0.245" />
<NormalBoilingPointTemperature name="Normal boiling point" units="K" value="553" />
<NormalMeltingPointTemperature name="Melting point" units="K" value="333" />
<TriplePointTemperature name="Triple point temperature" units="K" value="342.65" />
<TriplePointPressure name="Triple point pressure" units="Pa" value="7.8719" />
<MolecularWeight name="Molecular weight" units="kg/kmol" value="182.1335" />
<LiquidVolumeAtNormalBoilingPoint name="Liquid molar volume at normal boiling point" units="m3/kmol" value="0.137448" />
<AcentricityFactor name="Acentric factor" units="_" value="0.712571" />
<RadiusOfGyration name="Radius of gyration" units="m" value="5.07E-10" />
<SolubilityParameter name="Solubility parameter" units="J0.5/m1.5" value="21470" />
<DipoleMoment name="Dipole moment" units="Coulomb.m" value="1.44E-29" />
<VanDerWaalsVolume name="Van der Waals volume" units="m3/kmol" value="0.08807" />
<VanDerWaalsArea name="Van der Waals area" units="m2/kmol" value="1.112E+09" />
<HeatOfFormation name="IG heat of formation" units="J/kmol" value="3.36E+07" />
<GibbsEnergyOfFormation name="IG Gibbs energy of formation" units="J/kmol" value="2.18E+08" />
<AbsEntropy name="IG absolute entropy" units="J/kmol/K" value="414000" />
<HeatOfFusionAtMeltingPoint name="Heat of fusion at melting point" units="J/kmol" value="2.0126E+07" />
<HeatOfCombustion name="Standard net heat of combustion LHV" units="J/kmol" value="-3.416E+09" />
<SolidDensity name="Solid density" units="kmol/m3">
  <eqno value="2" />
  <A value="8.4055" />
  <B value="-0.00020398" />
  <C value="0" />
  <D value="0" />
  <E value="0" />
  <Tmin units="K" value="288.15" />
  <Tmax units="K" value="297.65" />
  </SolidDensity>
<LiquidDensity name="Liquid density" units="kmol/m3">
  <eqno value="105" />
  <A value="0.5108" />
  <B value="0.24037" />
  <C value="814" />
  <D value="0.26806" />
  <Tmin units="K" value="273.15" />
  <Tmax units="K" value="789.19" />
  </LiquidDensity>
<VaporPressure name="Vapour pressure" units="Pa">
  <eqno value="101" />
  <A value="128.9329" />
  <B value="-13393.44" />
  <C value="-15.15736" />
  <D value="5.597038E-06" />
  <E value="2" />
  <Tmin units="K" value="342.65" />
  <Tmax units="K" value="814" />
  </VaporPressure>
<HeatOfVaporization name="Heat of vaporization" units="J/kmol">
  <eqno value="106" />
  <A value="1.2919E+08" />
  <B value="1.3248" />
  <C value="1.0872" />
  <D value="-4.8737" />
  <E value="2.858" />
  <Tmin units="K" value="342.65" />
  <Tmax units="K" value="789.19" />
  </HeatOfVaporization>
<SolidHeatCapacityCp name="Solid heat capacity" units="J/kmol/K">
  <eqno value="100" />
  <A value="48.36" />
  <B value="3539.4" />
  <C value="-18.134" />
  <D value="0.041289" />
  <E value="-0.000035254" />
  <Tmin units="K" value="288.15" />
  <Tmax units="K" value="297.65" />
  </SolidHeatCapacityCp>
<LiquidHeatCapacityCp name="Liquid heat capacity" units="J/kmol/K">
  <eqno value="16" />
  <A value="88958" />
  <B value="1324.4" />
  <C value="2.7528" />
  <D value="0.019721" />
  <E value="-0.000011079" />
  <Tmin units="K" value="342.65" />
  <Tmax units="K" value="590" />
  </LiquidHeatCapacityCp>
<IdealGasHeatCapacityCp name="Ideal gas heat capacity" units="J/kmol/K">
  <eqno value="16" />
  <A value="94512" />
  <B value="-582.56" />
  <C value="13.27" />
  <D value="-0.00026587" />
  <E value="5.3735E-08" />
  <Tmin units="K" value="273" />
  <Tmax units="K" value="1500" />
  </IdealGasHeatCapacityCp>
<SecondVirialCoefficient name="Second virial coefficient" units="m3/kmol">
  <eqno value="104" />
  <A value="0.31157" />
  <B value="-359" />
  <C value="-324.62" />
  <D value="-771130" />
  <E value="1449700" />
  <Tmin units="K" value="407" />
  <Tmax units="K" value="1871.5" />
  </SecondVirialCoefficient>
<LiquidViscosity name="Liquid viscosity" units="Pa.s">
  <eqno value="101" />
  <A value="-41.408" />
  <B value="3947.7" />
  <C value="4.2203" />
  <D value="-0.0000035178" />
  <E value="2" />
  <Tmin units="K" value="342.65" />
  <Tmax units="K" value="714" />
  </LiquidViscosity>
<VaporViscosity name="Vapour viscosity" units="Pa.s">
  <eqno value="102" />
  <A value="1.9809E-08" />
  <B value="1.0159" />
  <C value="22.316" />
  <D value="-3670.3" />
  <Tmin units="K" value="342.65" />
  <Tmax units="K" value="1000" />
  </VaporViscosity>
<LiquidThermalConductivity name="Liquid thermal conductivity" units="W/m/K">
  <eqno value="16" />
  <A value="-0.057001" />
  <B value="-67.01" />
  <C value="-0.90194" />
  <D value="-0.0013614" />
  <E value="-3.0209E-08" />
  <Tmin units="K" value="342.65" />
  <Tmax units="K" value="590" />
  </LiquidThermalConductivity>
<VaporThermalConductivity name="Vapour thermal conductivity" units="W/m/K">
  <eqno value="102" />
  <A value="0.00011852" />
  <B value="0.95914" />
  <C value="734.05" />
  <D value="13896" />
  <Tmin units="K" value="274" />
  <Tmax units="K" value="1000" />
  </VaporThermalConductivity>
<SurfaceTension name="Surface tension" units="N/m">
  <eqno value="16" />
  <A value="-0.076326" />
  <B value="-4.6299" />
  <C value="-1.6478" />
  <D value="-0.0012028" />
  <E value="7.9965E-08" />
  <Tmin units="K" value="342.65" />
  <Tmax units="K" value="789.19" />
  </SurfaceTension>
<RPPHeatCapacityCp name="Ideal gas heat capacity (RPP)" units="J/kmol/K">
  <eqno value="4" />
  <A value="-14258" />
  <B value="768.51" />
  <C value="-0.52986" />
  <D value="0.00013246" />
  <Tmin units="K" value="273" />
  <Tmax units="K" value="1500" />
  </RPPHeatCapacityCp>
<AntoineVaporPressure name="Antoine" units="Pa">
  <eqno value="10" />
  <A value="24.142" />
  <B value="7851.3" />
  <C value="30.661" />
  <Tmin units="K" value="490" />
  <Tmax units="K" value="714.77" />
  </AntoineVaporPressure>
<LiquidViscosityRPS name="Liquid viscosity (RPS)" units="Pa.s">
  <eqno value="12" />
  <A value="-1.46" />
  <B value="-0.013192" />
  <Tmin units="K" value="342.65" />
  <Tmax units="K" value="590" />
  </LiquidViscosityRPS>
<COSTALDVolume name="COSTLD characteristic volume (V*)" units="m3/kmol" value="0.483027" />
<DiameterLJ name="Lennard Jones diameter" units="m" value="7.938808E-10" />
<EnergyLJ name="Lennard Jones energy" units="K" value="336.1519" />
<RacketParameter name="Rackett parameter" units="_" value="0.245" />
<FullerVolume name="Fuller et al. diffusion volume" units="_" value="122.08" />
<Parachor name="Parachor" units="kg0.25.m3/s0.5/kmol" value="0.065157" />
<SpecificGravity name="Specific gravity" units="_" value="1.376363" />
<Charge name="Charge" units="_" value="0" />
<CostaldAcentricFactor name="SRK acentric factor" units="_" value="0.712571" />
<WilsonVolume name="Wilson volume" units="m3/kmol" value="0.137448" />
<UniquacR name="UNIQUAC r" units="_" value="5.7" />
<UniquacQ name="UNIQUAC q" units="_" value="4.376" />
<ChaoSeaderAcentricFactor name="Chao-Seader acentric factor" units="_" value="0.712571" />
<ChaoSeaderSolubilityParameter name="Chao-Seader solubility parameter" units="J0.5/m1.5" value="21470" />
<ChaoSeaderLiquidVolume name="Chao-Seader liquid volume" units="m3/kmol" value="0.137448" />
<UnifacVLE name="UNIFAC">
  <group id="10" value="3" />
  <group id="12" value="1" />
  <group id="58" value="2" />
  </UnifacVLE>
<UnifacLLE name="UNIFAC-LLE">
  <group id="9" value="3" />
  <group id="11" value="1" />
  <group id="47" value="2" />
  </UnifacLLE>
<Asog name="ASOG">
  <group id="1" value="1" />
  <group id="10" value="3" />
  <group id="11" value="3" />
  <group id="34" value="2" />
  </Asog>
<Umr name="UMR">
  <group id="10" value="3" />
  <group id="12" value="1" />
  <group id="58" value="2" />
  </Umr>
<ModifiedUnifac name="Modified UNIFAC">
  <group id="9" value="3" />
  <group id="11" value="1" />
  <group id="57" value="2" />
  </ModifiedUnifac>
<CAS name="CAS number" value="121-14-2" />
<Smiles name="SMILES" value="c1(C)c(N(=O)=O)cc(N(=O)=O)cc1" />
</compound>

