<compound>
<LibraryIndex name="Index" value="35" />
<CompoundID name="Name" value="2,5-dimethylhexane" />
<StructureFormula name="Structure" value="CH3CH(CH3)CH2CH2CH(CH3)CH3" />
<Family name="Family" value="4" />
<CriticalTemperature name="Critical temperature" units="K" value="550" />
<CriticalPressure name="Critical pressure" units="Pa" value="2490000" />
<CriticalVolume name="Critical volume" units="m3/kmol" value="0.482" />
<CriticalCompressibility name="Critical compressibility factor" units="_" value="0.262" />
<NormalBoilingPointTemperature name="Normal boiling point" units="K" value="382.26" />
<NormalMeltingPointTemperature name="Melting point" units="K" value="182" />
<TriplePointTemperature name="Triple point temperature" units="K" value="182" />
<TriplePointPressure name="Triple point pressure" units="Pa" value="0.0683715" />
<MolecularWeight name="Molecular weight" units="kg/kmol" value="114.2285" />
<LiquidVolumeAtNormalBoilingPoint name="Liquid molar volume at normal boiling point" units="m3/kmol" value="0.1657" />
<AcentricityFactor name="Acentric factor" units="_" value="0.357" />
<RadiusOfGyration name="Radius of gyration" units="m" value="4.452E-10" />
<SolubilityParameter name="Solubility parameter" units="J0.5/m1.5" value="14740" />
<DipoleMoment name="Dipole moment" units="Coulomb.m" value="0" />
<VanDerWaalsVolume name="Van der Waals volume" units="m3/kmol" value="0.0886999" />
<VanDerWaalsArea name="Van der Waals area" units="m2/kmol" value="1.232E+09" />
<HeatOfFormation name="IG heat of formation" units="J/kmol" value="-2.22631E+08" />
<GibbsEnergyOfFormation name="IG Gibbs energy of formation" units="J/kmol" value="1.046E+07" />
<AbsEntropy name="IG absolute entropy" units="J/kmol/K" value="442330" />
<HeatOfFusionAtMeltingPoint name="Heat of fusion at melting point" units="J/kmol" value="1.29537E+07" />
<MatthiasCopemanC1 name="Mathias-Copeman C1" units="_" value="1.0696" />
<HeatOfCombustion name="Standard net heat of combustion LHV" units="J/kmol" value="-5.06398E+09" />
<SolidDensity name="Solid density" units="kmol/m3">
  <eqno value="2" />
  <A value="8.6373" />
  <B value="-0.0052793" />
  <C value="0" />
  <D value="0" />
  <E value="0" />
  <Tmin units="K" value="72.8" />
  <Tmax units="K" value="182" />
  </SolidDensity>
<LiquidDensity name="Liquid density" units="kmol/m3">
  <eqno value="105" />
  <A value="0.49779" />
  <B value="0.2525" />
  <C value="550" />
  <D value="0.26429" />
  <Tmin units="K" value="182" />
  <Tmax units="K" value="550" />
  </LiquidDensity>
<VaporPressure name="Vapour pressure" units="Pa">
  <eqno value="101" />
  <A value="87.65473" />
  <B value="-7122.285" />
  <C value="-9.843559" />
  <D value="7.04047E-06" />
  <E value="2" />
  <Tmin units="K" value="182" />
  <Tmax units="K" value="550" />
  </VaporPressure>
<HeatOfVaporization name="Heat of vaporization" units="J/kmol">
  <eqno value="106" />
  <A value="6.2389E+07" />
  <B value="1.0017" />
  <C value="-0.72582" />
  <D value="-0.024698" />
  <E value="0.19155" />
  <Tmin units="K" value="182" />
  <Tmax units="K" value="550" />
  </HeatOfVaporization>
<SolidHeatCapacityCp name="Solid heat capacity" units="J/kmol/K">
  <eqno value="1" />
  <A value="223200" />
  <Tmin units="K" value="0" />
  <Tmax units="K" value="550" />
  </SolidHeatCapacityCp>
<LiquidHeatCapacityCp name="Liquid heat capacity" units="J/kmol/K">
  <eqno value="16" />
  <A value="-51796" />
  <B value="-110.09" />
  <C value="12.759" />
  <D value="0.00089408" />
  <E value="-0.0000004354" />
  <Tmin units="K" value="208.7" />
  <Tmax units="K" value="382.26" />
  </LiquidHeatCapacityCp>
<IdealGasHeatCapacityCp name="Ideal gas heat capacity" units="J/kmol/K">
  <eqno value="16" />
  <A value="66542" />
  <B value="-399.08" />
  <C value="12.9" />
  <D value="0.00049831" />
  <E value="-1.6255E-07" />
  <Tmin units="K" value="200" />
  <Tmax units="K" value="1500" />
  </IdealGasHeatCapacityCp>
<SecondVirialCoefficient name="Second virial coefficient" units="m3/kmol">
  <eqno value="104" />
  <A value="0.27338" />
  <B value="-354.69" />
  <C value="-46.241" />
  <D value="-8382" />
  <E value="15583" />
  <Tmin units="K" value="275" />
  <Tmax units="K" value="2000" />
  </SecondVirialCoefficient>
<LiquidViscosity name="Liquid viscosity" units="Pa.s">
  <eqno value="101" />
  <A value="-2.9399" />
  <B value="836.45" />
  <C value="-1.3966" />
  <D value="0.00000447" />
  <E value="2" />
  <Tmin units="K" value="200" />
  <Tmax units="K" value="400" />
  </LiquidViscosity>
<VaporViscosity name="Vapour viscosity" units="Pa.s">
  <eqno value="102" />
  <A value="8.3872E-07" />
  <B value="0.47833" />
  <C value="344.26" />
  <D value="27.957" />
  <Tmin units="K" value="382.26" />
  <Tmax units="K" value="1000" />
  </VaporViscosity>
<LiquidThermalConductivity name="Liquid thermal conductivity" units="W/m/K">
  <eqno value="16" />
  <A value="-0.074336" />
  <B value="3.6543" />
  <C value="-1.5091" />
  <D value="-0.00039812" />
  <E value="-0.0000013255" />
  <Tmin units="K" value="182" />
  <Tmax units="K" value="382.26" />
  </LiquidThermalConductivity>
<VaporThermalConductivity name="Vapour thermal conductivity" units="W/m/K">
  <eqno value="102" />
  <A value="0.000029331" />
  <B value="1.1695" />
  <C value="-138.07" />
  <D value="145330" />
  <Tmin units="K" value="182" />
  <Tmax units="K" value="1000" />
  </VaporThermalConductivity>
<SurfaceTension name="Surface tension" units="N/m">
  <eqno value="16" />
  <A value="-0.0092168" />
  <B value="46.652" />
  <C value="-3.4804" />
  <D value="0.0011019" />
  <E value="-0.0000063095" />
  <Tmin units="K" value="182" />
  <Tmax units="K" value="550" />
  </SurfaceTension>
<RPPHeatCapacityCp name="Ideal gas heat capacity (RPP)" units="J/kmol/K">
  <eqno value="100" />
  <A value="-11366" />
  <B value="725.73" />
  <C value="-0.14958" />
  <D value="-0.00027795" />
  <E value="0.0000001544" />
  <Tmin units="K" value="200" />
  <Tmax units="K" value="1000" />
  </RPPHeatCapacityCp>
<RelativeStaticPermittivity name="Relative static permittivity" units="_">
  <eqno value="120" />
  <A value="-1.796538" />
  <B value="-1200" />
  <C value="-7.2" />
  <Tmin units="K" value="274.15" />
  <Tmax units="K" value="444.15" />
  </RelativeStaticPermittivity>
<AntoineVaporPressure name="Antoine" units="Pa">
  <eqno value="10" />
  <A value="20.777" />
  <B value="3002.6" />
  <C value="-57.773" />
  <Tmin units="K" value="333.13" />
  <Tmax units="K" value="491.89" />
  </AntoineVaporPressure>
<LiquidViscosityRPS name="Liquid viscosity (RPS)" units="Pa.s">
  <eqno value="12" />
  <A value="-3.9193" />
  <B value="-0.01228" />
  <Tmin units="K" value="200" />
  <Tmax units="K" value="382.26" />
  </LiquidViscosityRPS>
<COSTALDVolume name="COSTLD characteristic volume (V*)" units="m3/kmol" value="0.486848" />
<DiameterLJ name="Lennard Jones diameter" units="m" value="7.299601E-10" />
<EnergyLJ name="Lennard Jones energy" units="K" value="289.1748" />
<RacketParameter name="Rackett parameter" units="_" value="0.262" />
<FullerVolume name="Fuller et al. diffusion volume" units="_" value="168.78" />
<MatthiasCopemanC2 name="Mathias-Copeman C2" units="_" value="-0.48407" />
<Parachor name="Parachor" units="kg0.25.m3/s0.5/kmol" value="0.0616138" />
<SpecificGravity name="Specific gravity" units="_" value="0.698238" />
<Charge name="Charge" units="_" value="0" />
<CostaldAcentricFactor name="SRK acentric factor" units="_" value="0.357" />
<WilsonVolume name="Wilson volume" units="m3/kmol" value="0.1657" />
<UniquacR name="UNIQUAC r" units="_" value="5.847" />
<UniquacQ name="UNIQUAC q" units="_" value="4.928" />
<ApiSrkS2 name="API-SRK s2" units="_" value="-0.001621" />
<MatthiasCopemanC3 name="Mathias-Copeman C3" units="_" value="1.0187" />
<ChaoSeaderAcentricFactor name="Chao-Seader acentric factor" units="_" value="0.357" />
<ChaoSeaderSolubilityParameter name="Chao-Seader solubility parameter" units="J0.5/m1.5" value="14740" />
<ChaoSeaderLiquidVolume name="Chao-Seader liquid volume" units="m3/kmol" value="0.1657" />
<UnifacVLE name="UNIFAC">
  <group id="1" value="4" />
  <group id="2" value="2" />
  <group id="3" value="2" />
  </UnifacVLE>
<UnifacLLE name="UNIFAC-LLE">
  <group id="1" value="4" />
  <group id="2" value="2" />
  <group id="3" value="2" />
  </UnifacLLE>
<Asog name="ASOG">
  <group id="1" value="4" />
  <group id="2" value="2" />
  <group id="3" value="2" />
  </Asog>
<GCmethod name="PPR78">
  <group id="1" value="4" />
  <group id="2" value="2" />
  <group id="3" value="2" />
  </GCmethod>
<Umr name="UMR">
  <group id="1" value="4" />
  <group id="2" value="2" />
  <group id="3" value="2" />
  </Umr>
<ModifiedUnifac name="Modified UNIFAC">
  <group id="1" value="4" />
  <group id="2" value="2" />
  <group id="3" value="2" />
  </ModifiedUnifac>
<CAS name="CAS number" value="592-13-2" />
<Smiles name="SMILES" value="CC(C)CCC(C)C" />
</compound>

