<compound>
<LibraryIndex name="Index" value="1174" />
<CompoundID name="Name" value="2,5-xylenol" />
<StructureFormula name="Structure" value="(C6H3)(CH3)2OH" />
<Family name="Family" value="48" />
<CriticalTemperature name="Critical temperature" units="K" value="723.05" />
<CriticalPressure name="Critical pressure" units="Pa" value="4863600" />
<CriticalVolume name="Critical volume" units="m3/kmol" value="0.47" />
<CriticalCompressibility name="Critical compressibility factor" units="_" value="0.292" />
<NormalBoilingPointTemperature name="Normal boiling point" units="K" value="484.28" />
<NormalMeltingPointTemperature name="Melting point" units="K" value="348" />
<TriplePointTemperature name="Triple point temperature" units="K" value="347.99" />
<TriplePointPressure name="Triple point pressure" units="Pa" value="561.21" />
<MolecularWeight name="Molecular weight" units="kg/kmol" value="122.164" />
<LiquidVolumeAtNormalBoilingPoint name="Liquid molar volume at normal boiling point" units="m3/kmol" value="0.126283" />
<AcentricityFactor name="Acentric factor" units="_" value="0.563781" />
<RadiusOfGyration name="Radius of gyration" units="m" value="4.128E-10" />
<SolubilityParameter name="Solubility parameter" units="J0.5/m1.5" value="20560" />
<DipoleMoment name="Dipole moment" units="Coulomb.m" value="4.77E-30" />
<VanDerWaalsVolume name="Van der Waals volume" units="m3/kmol" value="0.07618" />
<VanDerWaalsArea name="Van der Waals area" units="m2/kmol" value="9.6E+08" />
<HeatOfFormation name="IG heat of formation" units="J/kmol" value="-1.6163E+08" />
<GibbsEnergyOfFormation name="IG Gibbs energy of formation" units="J/kmol" value="-3.967E+07" />
<AbsEntropy name="IG absolute entropy" units="J/kmol/K" value="395760" />
<HeatOfFusionAtMeltingPoint name="Heat of fusion at melting point" units="J/kmol" value="1.39E+07" />
<HeatOfCombustion name="Standard net heat of combustion LHV" units="J/kmol" value="-4.11056E+09" />
<SolidDensity name="Solid density" units="kmol/m3">
  <eqno value="100" />
  <A value="9.7326" />
  <B value="0" />
  <C value="0" />
  <D value="0" />
  <E value="0" />
  <Tmin units="K" value="298.15" />
  <Tmax units="K" value="298.15" />
  </SolidDensity>
<LiquidDensity name="Liquid density" units="kmol/m3">
  <eqno value="105" />
  <A value="0.84077" />
  <B value="0.29425" />
  <C value="707.05" />
  <D value="0.26921" />
  <Tmin units="K" value="347.99" />
  <Tmax units="K" value="707.05" />
  </LiquidDensity>
<VaporPressure name="Vapour pressure" units="Pa">
  <eqno value="101" />
  <A value="62.262" />
  <B value="-8580" />
  <C value="-5.3452" />
  <D value="2.8244E-18" />
  <E value="6" />
  <Tmin units="K" value="347.99" />
  <Tmax units="K" value="707.05" />
  </VaporPressure>
<HeatOfVaporization name="Heat of vaporization" units="J/kmol">
  <eqno value="106" />
  <A value="6.9307E+07" />
  <B value="0.30748" />
  <C value="0" />
  <D value="0" />
  <E value="0" />
  <Tmin units="K" value="347.99" />
  <Tmax units="K" value="707.05" />
  </HeatOfVaporization>
<SolidHeatCapacityCp name="Solid heat capacity" units="J/kmol/K">
  <eqno value="102" />
  <A value="1940" />
  <B value="0.79267" />
  <C value="0" />
  <D value="0" />
  <Tmin units="K" value="50" />
  <Tmax units="K" value="347.99" />
  </SolidHeatCapacityCp>
<LiquidHeatCapacityCp name="Liquid heat capacity" units="J/kmol/K">
  <eqno value="100" />
  <A value="74200" />
  <B value="463.2" />
  <C value="0" />
  <D value="0" />
  <E value="0" />
  <Tmin units="K" value="353.53" />
  <Tmax units="K" value="523.53" />
  </LiquidHeatCapacityCp>
<IdealGasHeatCapacityCp name="Ideal gas heat capacity" units="J/kmol/K">
  <eqno value="16" />
  <A value="71822.01" />
  <B value="-500" />
  <C value="13" />
  <D value="0" />
  <E value="0" />
  <Tmin units="K" value="255" />
  <Tmax units="K" value="1500" />
  </IdealGasHeatCapacityCp>
<SecondVirialCoefficient name="Second virial coefficient" units="m3/kmol">
  <eqno value="104" />
  <A value="0.19906" />
  <B value="-442.16" />
  <C value="-1.0165E+08" />
  <D value="-3.6599E+20" />
  <E value="5.3197E+22" />
  <Tmin units="K" value="340" />
  <Tmax units="K" value="1500" />
  </SecondVirialCoefficient>
<LiquidViscosity name="Liquid viscosity" units="Pa.s">
  <eqno value="101" />
  <A value="-16.907" />
  <B value="2303.1" />
  <C value="0.65005" />
  <D value="0" />
  <E value="0" />
  <Tmin units="K" value="347.99" />
  <Tmax units="K" value="484.33" />
  </LiquidViscosity>
<VaporViscosity name="Vapour viscosity" units="Pa.s">
  <eqno value="102" />
  <A value="9.8664E-08" />
  <B value="0.79414" />
  <C value="113.31" />
  <D value="0" />
  <Tmin units="K" value="347.99" />
  <Tmax units="K" value="1000" />
  </VaporViscosity>
<LiquidThermalConductivity name="Liquid thermal conductivity" units="W/m/K">
  <eqno value="100" />
  <A value="0.23313" />
  <B value="-0.00023967" />
  <C value="0" />
  <D value="0" />
  <E value="0" />
  <Tmin units="K" value="347.99" />
  <Tmax units="K" value="562.11" />
  </LiquidThermalConductivity>
<VaporThermalConductivity name="Vapour thermal conductivity" units="W/m/K">
  <eqno value="102" />
  <A value="0.00020261" />
  <B value="0.9297" />
  <C value="722.68" />
  <D value="0" />
  <Tmin units="K" value="484.33" />
  <Tmax units="K" value="1000" />
  </VaporThermalConductivity>
<SurfaceTension name="Surface tension" units="N/m">
  <eqno value="106" />
  <A value="0.060058" />
  <B value="1.0067" />
  <C value="0" />
  <D value="0" />
  <E value="0" />
  <Tmin units="K" value="347.99" />
  <Tmax units="K" value="707.05" />
  </SurfaceTension>
<AntoineVaporPressure name="Antoine" units="Pa">
  <eqno value="10" />
  <A value="22.16745" />
  <B value="4393.308" />
  <C value="-71.11042" />
  <Tmin units="K" value="387.424" />
  <Tmax units="K" value="723.05" />
  </AntoineVaporPressure>
<FullerVolume name="Fuller et al. diffusion volume" units="_" value="138.11" />
<Charge name="Charge" units="_" value="0" />
<CostaldAcentricFactor name="SRK acentric factor" units="_" value="0.563781" />
<WilsonVolume name="Wilson volume" units="m3/kmol" value="0.126283" />
<UniquacR name="UNIQUAC r" units="_" value="5.0217" />
<UniquacQ name="UNIQUAC q" units="_" value="3.816" />
<ChaoSeaderAcentricFactor name="Chao-Seader acentric factor" units="_" value="0.563781" />
<ChaoSeaderSolubilityParameter name="Chao-Seader solubility parameter" units="J0.5/m1.5" value="20560" />
<ChaoSeaderLiquidVolume name="Chao-Seader liquid volume" units="m3/kmol" value="0.126283" />
<UnifacVLE name="UNIFAC">
  <group id="10" value="3" />
  <group id="12" value="2" />
  <group id="18" value="1" />
  </UnifacVLE>
<UnifacLLE name="UNIFAC-LLE">
  <group id="9" value="3" />
  <group id="11" value="2" />
  <group id="18" value="1" />
  </UnifacLLE>
<Asog name="ASOG">
  <group id="10" value="3" />
  <group id="11" value="2" />
  <group id="16" value="1" />
  </Asog>
<GCmethod name="PPR78">
  <group id="7" value="3" />
  <group id="8" value="2" />
  </GCmethod>
<Umr name="UMR">
  <group id="10" value="3" />
  <group id="12" value="2" />
  <group id="18" value="1" />
  </Umr>
<ModifiedUnifac name="Modified UNIFAC">
  <group id="9" value="3" />
  <group id="11" value="2" />
  <group id="17" value="1" />
  </ModifiedUnifac>
<CAS name="CAS number" value="95-87-4" />
<Smiles name="SMILES" value="Cc1ccc(c(c1)O)C" />
</compound>

