<compound>
<LibraryIndex name="Index" value="1107" />
<CompoundID name="Name" value="2-butanol" />
<StructureFormula name="Structure" value="CH3CH2CH(OH)CH3" />
<Family name="Family" value="46" />
<CriticalTemperature name="Critical temperature" units="K" value="536.05" />
<CriticalPressure name="Critical pressure" units="Pa" value="4179000" />
<CriticalVolume name="Critical volume" units="m3/kmol" value="0.269" />
<CriticalCompressibility name="Critical compressibility factor" units="_" value="0.252" />
<NormalBoilingPointTemperature name="Normal boiling point" units="K" value="372.66" />
<NormalMeltingPointTemperature name="Melting point" units="K" value="158.45" />
<TriplePointTemperature name="Triple point temperature" units="K" value="158.45" />
<TriplePointPressure name="Triple point pressure" units="Pa" value="3.16526E-06" />
<MolecularWeight name="Molecular weight" units="kg/kmol" value="74.1216" />
<LiquidVolumeAtNormalBoilingPoint name="Liquid molar volume at normal boiling point" units="m3/kmol" value="0.09235" />
<AcentricityFactor name="Acentric factor" units="_" value="0.574" />
<RadiusOfGyration name="Radius of gyration" units="m" value="3.203E-10" />
<SolubilityParameter name="Solubility parameter" units="J0.5/m1.5" value="22620" />
<DipoleMoment name="Dipole moment" units="Coulomb.m" value="5.54E-30" />
<VanDerWaalsVolume name="Van der Waals volume" units="m3/kmol" value="0.05239" />
<VanDerWaalsArea name="Van der Waals area" units="m2/kmol" value="7.62E+08" />
<HeatOfFormation name="IG heat of formation" units="J/kmol" value="-2.929E+08" />
<GibbsEnergyOfFormation name="IG Gibbs energy of formation" units="J/kmol" value="-1.696E+08" />
<AbsEntropy name="IG absolute entropy" units="J/kmol/K" value="364690" />
<HeatOfFusionAtMeltingPoint name="Heat of fusion at melting point" units="J/kmol" value="5971000" />
<MatthiasCopemanC1 name="Mathias-Copeman C1" units="_" value="1.2365" />
<HeatOfCombustion name="Standard net heat of combustion LHV" units="J/kmol" value="-2.4408E+09" />
<SolidDensity name="Solid density" units="kmol/m3">
  <eqno value="2" />
  <A value="15.976" />
  <B value="-0.011447" />
  <Tmin units="K" value="63.38" />
  <Tmax units="K" value="158.45" />
  </SolidDensity>
<LiquidDensity name="Liquid density" units="kmol/m3">
  <eqno value="105" />
  <A value="0.65041" />
  <B value="0.21558" />
  <C value="536.05" />
  <D value="0.22084" />
  <Tmin units="K" value="158.45" />
  <Tmax units="K" value="516.32" />
  </LiquidDensity>
<VaporPressure name="Vapour pressure" units="Pa">
  <eqno value="101" />
  <A value="145.55" />
  <B value="-10811" />
  <C value="-17.957" />
  <D value="0.0000094132" />
  <E value="2" />
  <Tmin units="K" value="158.45" />
  <Tmax units="K" value="536.2" />
  </VaporPressure>
<HeatOfVaporization name="Heat of vaporization" units="J/kmol">
  <eqno value="106" />
  <A value="9.123771E+07" />
  <B value="1.779726" />
  <C value="-3.389854" />
  <D value="3.546493" />
  <E value="-1.385264" />
  <Tmin units="K" value="158.45" />
  <Tmax units="K" value="516.32" />
  </HeatOfVaporization>
<SolidHeatCapacityCp name="Solid heat capacity" units="J/kmol/K">
  <eqno value="100" />
  <A value="-10538" />
  <B value="1245.7" />
  <C value="-7.8474" />
  <D value="0.033221" />
  <E value="-0.000052097" />
  <Tmin units="K" value="15" />
  <Tmax units="K" value="184.73" />
  </SolidHeatCapacityCp>
<LiquidHeatCapacityCp name="Liquid heat capacity" units="J/kmol/K">
  <eqno value="16" />
  <A value="68513" />
  <B value="631.42" />
  <C value="2.7425" />
  <D value="0.03164" />
  <E value="-0.000028572" />
  <Tmin units="K" value="158.45" />
  <Tmax units="K" value="372.7" />
  </LiquidHeatCapacityCp>
<IdealGasHeatCapacityCp name="Ideal gas heat capacity" units="J/kmol/K">
  <eqno value="16" />
  <A value="70319" />
  <B value="-564.51" />
  <C value="12.517" />
  <D value="0.00018661" />
  <E value="-6.3166E-08" />
  <Tmin units="K" value="150" />
  <Tmax units="K" value="1500" />
  </IdealGasHeatCapacityCp>
<SecondVirialCoefficient name="Second virial coefficient" units="m3/kmol">
  <eqno value="104" />
  <A value="0.18777" />
  <B value="-172.62" />
  <C value="-36.943" />
  <D value="-5764.3" />
  <E value="4704.5" />
  <Tmin units="K" value="268.1" />
  <Tmax units="K" value="1955" />
  </SecondVirialCoefficient>
<LiquidViscosity name="Liquid viscosity" units="Pa.s">
  <eqno value="101" />
  <A value="19.329" />
  <B value="3026.9" />
  <C value="-6.6532" />
  <D value="0.000029986" />
  <E value="2" />
  <Tmin units="K" value="288.15" />
  <Tmax units="K" value="400" />
  </LiquidViscosity>
<VaporViscosity name="Vapour viscosity" units="Pa.s">
  <eqno value="102" />
  <A value="1.3231E-07" />
  <B value="0.76798" />
  <C value="139.73" />
  <D value="-4888.6" />
  <Tmin units="K" value="158.45" />
  <Tmax units="K" value="1000" />
  </VaporViscosity>
<LiquidThermalConductivity name="Liquid thermal conductivity" units="W/m/K">
  <eqno value="16" />
  <A value="0.031711" />
  <B value="-158.34" />
  <C value="-0.24491" />
  <D value="-0.0057475" />
  <E value="0.000002591" />
  <Tmin units="K" value="200" />
  <Tmax units="K" value="398.15" />
  </LiquidThermalConductivity>
<VaporThermalConductivity name="Vapour thermal conductivity" units="W/m/K">
  <eqno value="102" />
  <A value="0.0000011661" />
  <B value="1.7056" />
  <C value="340.33" />
  <D value="-60553" />
  <Tmin units="K" value="255.9278" />
  <Tmax units="K" value="992.7" />
  </VaporThermalConductivity>
<SurfaceTension name="Surface tension" units="N/m">
  <eqno value="16" />
  <A value="-0.013468" />
  <B value="-124.81" />
  <C value="-1.739" />
  <D value="-0.0040653" />
  <E value="6.6383E-07" />
  <Tmin units="K" value="273.15" />
  <Tmax units="K" value="372.7" />
  </SurfaceTension>
<RPPHeatCapacityCp name="Ideal gas heat capacity (RPP)" units="J/kmol/K">
  <eqno value="100" />
  <A value="32094" />
  <B value="237.47" />
  <C value="0.22682" />
  <D value="-0.00042736" />
  <E value="1.7602E-07" />
  <Tmin units="K" value="50" />
  <Tmax units="K" value="1000" />
  </RPPHeatCapacityCp>
<RelativeStaticPermittivity name="Relative static permittivity" units="_">
  <eqno value="120" />
  <A value="-30.07289" />
  <B value="-11424.69" />
  <C value="-54.73557" />
  <Tmin units="K" value="283" />
  <Tmax units="K" value="536" />
  </RelativeStaticPermittivity>
<AntoineVaporPressure name="Antoine" units="Pa">
  <eqno value="10" />
  <A value="21.402" />
  <B value="2657.7" />
  <C value="-103.45" />
  <Tmin units="K" value="323.15" />
  <Tmax units="K" value="476.56" />
  </AntoineVaporPressure>
<LiquidViscosityRPS name="Liquid viscosity (RPS)" units="Pa.s">
  <eqno value="13" />
  <A value="18.793" />
  <B value="-0.12678" />
  <C value="0.00014902" />
  <Tmin units="K" value="288.15" />
  <Tmax units="K" value="373.15" />
  </LiquidViscosityRPS>
<COSTALDVolume name="COSTLD characteristic volume (V*)" units="m3/kmol" value="0.28029" />
<DiameterLJ name="Lennard Jones diameter" units="m" value="6.297213E-10" />
<EnergyLJ name="Lennard Jones energy" units="K" value="244.9968" />
<FullerVolume name="Fuller et al. diffusion volume" units="_" value="92.81" />
<MatthiasCopemanC2 name="Mathias-Copeman C2" units="_" value="0.21667" />
<Parachor name="Parachor" units="kg0.25.m3/s0.5/kmol" value="0.0358947" />
<SpecificGravity name="Specific gravity" units="_" value="0.813869" />
<Charge name="Charge" units="_" value="0" />
<CostaldAcentricFactor name="SRK acentric factor" units="_" value="0.5792" />
<WilsonVolume name="Wilson volume" units="m3/kmol" value="0.09235" />
<UniquacR name="UNIQUAC r" units="_" value="3.4535" />
<UniquacQ name="UNIQUAC q" units="_" value="3.048" />
<UniquacQP name="UNIQUAC q'" units="_" value="0.88" />
<ApiSrkS1 name="API-SRK s1" units="_" value="0.601957" />
<ApiSrkS2 name="API-SRK s2" units="_" value="0.600508" />
<MatthiasCopemanC3 name="Mathias-Copeman C3" units="_" value="1.94166" />
<ChaoSeaderAcentricFactor name="Chao-Seader acentric factor" units="_" value="0.571133" />
<ChaoSeaderSolubilityParameter name="Chao-Seader solubility parameter" units="J0.5/m1.5" value="22629.5" />
<ChaoSeaderLiquidVolume name="Chao-Seader liquid volume" units="m3/kmol" value="0.0921178" />
<UnifacVLE name="UNIFAC">
  <group id="1" value="2" />
  <group id="2" value="1" />
  <group id="3" value="1" />
  <group id="15" value="1" />
  </UnifacVLE>
<UnifacLLE name="UNIFAC-LLE">
  <group id="1" value="2" />
  <group id="2" value="1" />
  <group id="3" value="1" />
  <group id="14" value="1" />
  </UnifacLLE>
<Asog name="ASOG">
  <group id="1" value="2" />
  <group id="2" value="1" />
  <group id="3" value="1" />
  <group id="15" value="1" />
  </Asog>
<GCmethod name="PPR78">
  <group id="1" value="2" />
  <group id="2" value="1" />
  <group id="3" value="1" />
  <group id="41" value="1" />
  </GCmethod>
<Umr name="UMR">
  <group id="1" value="2" />
  <group id="2" value="1" />
  <group id="3" value="1" />
  <group id="15" value="1" />
  </Umr>
<ModifiedUnifac name="Modified UNIFAC">
  <group id="1" value="2" />
  <group id="2" value="1" />
  <group id="3" value="1" />
  <group id="14" value="1" />
  </ModifiedUnifac>
<CAS name="CAS number" value="78-92-2" />
<Smiles name="SMILES" value="CCC(O)C" />
</compound>

