<compound>
<LibraryIndex name="Index" value="577" />
<CompoundID name="Name" value="2-ethyl-p-xylene" />
<StructureFormula name="Structure" value="CH3CH2(C6H3)(CH3)2" />
<Family name="Family" value="17" />
<CriticalTemperature name="Critical temperature" units="K" value="680" />
<CriticalPressure name="Critical pressure" units="Pa" value="3380000" />
<CriticalVolume name="Critical volume" units="m3/kmol" value="0.461" />
<CriticalCompressibility name="Critical compressibility factor" units="_" value="0.252" />
<NormalBoilingPointTemperature name="Normal boiling point" units="K" value="460.09" />
<NormalMeltingPointTemperature name="Melting point" units="K" value="219" />
<TriplePointTemperature name="Triple point temperature" units="K" value="219.52" />
<TriplePointPressure name="Triple point pressure" units="Pa" value="0.0748611" />
<MolecularWeight name="Molecular weight" units="kg/kmol" value="134.2182" />
<LiquidVolumeAtNormalBoilingPoint name="Liquid molar volume at normal boiling point" units="m3/kmol" value="0.153715" />
<AcentricityFactor name="Acentric factor" units="_" value="0.36" />
<RadiusOfGyration name="Radius of gyration" units="m" value="4.579E-10" />
<SolubilityParameter name="Solubility parameter" units="J0.5/m1.5" value="17610" />
<VanDerWaalsVolume name="Van der Waals volume" units="m3/kmol" value="0.0920399" />
<VanDerWaalsArea name="Van der Waals area" units="m2/kmol" value="1.161E+09" />
<HeatOfFormation name="IG heat of formation" units="J/kmol" value="-3.218E+07" />
<GibbsEnergyOfFormation name="IG Gibbs energy of formation" units="J/kmol" value="1.273E+08" />
<AbsEntropy name="IG absolute entropy" units="J/kmol/K" value="436600" />
<HeatOfFusionAtMeltingPoint name="Heat of fusion at melting point" units="J/kmol" value="1.519E+07" />
<MatthiasCopemanC1 name="Mathias-Copeman C1" units="_" value="1.03" />
<HeatOfCombustion name="Standard net heat of combustion LHV" units="J/kmol" value="-5.543E+09" />
<SolidDensity name="Solid density" units="kmol/m3">
  <eqno value="2" />
  <A value="8.829" />
  <B value="-0.0044696" />
  <C value="0" />
  <D value="0" />
  <E value="0" />
  <Tmin units="K" value="87.81" />
  <Tmax units="K" value="219.52" />
  </SolidDensity>
<LiquidDensity name="Liquid density" units="kmol/m3">
  <eqno value="105" />
  <A value="0.15639" />
  <B value="0.13957" />
  <C value="680" />
  <D value="0.19566" />
  <Tmin units="K" value="219.52" />
  <Tmax units="K" value="639.66" />
  </LiquidDensity>
<VaporPressure name="Vapour pressure" units="Pa">
  <eqno value="101" />
  <A value="51.35796" />
  <B value="-7093.865" />
  <C value="-3.98884" />
  <D value="0.0000002143" />
  <E value="2" />
  <Tmin units="K" value="219.52" />
  <Tmax units="K" value="680" />
  </VaporPressure>
<HeatOfVaporization name="Heat of vaporization" units="J/kmol">
  <eqno value="106" />
  <A value="8.269938E+07" />
  <B value="2.580922" />
  <C value="-6.4761" />
  <D value="7.125795" />
  <E value="-2.740318" />
  <Tmin units="K" value="219.52" />
  <Tmax units="K" value="663" />
  </HeatOfVaporization>
<SolidHeatCapacityCp name="Solid heat capacity" units="J/kmol/K">
  <eqno value="100" />
  <A value="7232.9" />
  <B value="1019.6" />
  <C value="-2.26" />
  <D value="0.006668" />
  <E value="-0.0000087976" />
  <Tmin units="K" value="50" />
  <Tmax units="K" value="219.52" />
  </SolidHeatCapacityCp>
<LiquidHeatCapacityCp name="Liquid heat capacity" units="J/kmol/K">
  <eqno value="16" />
  <A value="115180" />
  <B value="-69.179" />
  <C value="10.574" />
  <D value="0.0065199" />
  <E value="-0.0000055164" />
  <Tmin units="K" value="298.15" />
  <Tmax units="K" value="459.98" />
  </LiquidHeatCapacityCp>
<IdealGasHeatCapacityCp name="Ideal gas heat capacity" units="J/kmol/K">
  <eqno value="16" />
  <A value="90693" />
  <B value="-533.27" />
  <C value="13.139" />
  <D value="0.00014143" />
  <E value="-6.0863E-08" />
  <Tmin units="K" value="273" />
  <Tmax units="K" value="1500" />
  </IdealGasHeatCapacityCp>
<SecondVirialCoefficient name="Second virial coefficient" units="m3/kmol">
  <eqno value="104" />
  <A value="0.34598" />
  <B value="-446.91" />
  <C value="-99.564" />
  <D value="-42376" />
  <E value="51770" />
  <Tmin units="K" value="331.5" />
  <Tmax units="K" value="1500" />
  </SecondVirialCoefficient>
<LiquidViscosity name="Liquid viscosity" units="Pa.s">
  <eqno value="101" />
  <A value="-12.139" />
  <B value="1509" />
  <C value="0.050995" />
  <D value="-2.3531E-08" />
  <E value="2" />
  <Tmin units="K" value="219.52" />
  <Tmax units="K" value="573" />
  </LiquidViscosity>
<VaporViscosity name="Vapour viscosity" units="Pa.s">
  <eqno value="102" />
  <A value="0.0000010483" />
  <B value="0.4491" />
  <C value="412.22" />
  <D value="-1561.4" />
  <Tmin units="K" value="219.52" />
  <Tmax units="K" value="1000" />
  </VaporViscosity>
<LiquidThermalConductivity name="Liquid thermal conductivity" units="W/m/K">
  <eqno value="16" />
  <A value="-0.080449" />
  <B value="4.7926" />
  <C value="-1.4191" />
  <D value="-0.00032019" />
  <E value="-9.3368E-07" />
  <Tmin units="K" value="219.52" />
  <Tmax units="K" value="459.98" />
  </LiquidThermalConductivity>
<VaporThermalConductivity name="Vapour thermal conductivity" units="W/m/K">
  <eqno value="102" />
  <A value="0.000085732" />
  <B value="1.0445" />
  <C value="516.18" />
  <D value="46622" />
  <Tmin units="K" value="219.52" />
  <Tmax units="K" value="1000" />
  </VaporThermalConductivity>
<SurfaceTension name="Surface tension" units="N/m">
  <eqno value="16" />
  <A value="-0.025429" />
  <B value="29.001" />
  <C value="-2.5612" />
  <D value="-0.001025" />
  <E value="-0.0000010416" />
  <Tmin units="K" value="219.52" />
  <Tmax units="K" value="663" />
  </SurfaceTension>
<RPPHeatCapacityCp name="Ideal gas heat capacity (RPP)" units="J/kmol/K">
  <eqno value="4" />
  <A value="-20399" />
  <B value="799.64" />
  <C value="-0.46931" />
  <D value="0.00010452" />
  <Tmin units="K" value="273" />
  <Tmax units="K" value="1500" />
  </RPPHeatCapacityCp>
<AntoineVaporPressure name="Antoine" units="Pa">
  <eqno value="10" />
  <A value="20.962" />
  <B value="3588.7" />
  <C value="-79.823" />
  <Tmin units="K" value="413.35" />
  <Tmax units="K" value="600" />
  </AntoineVaporPressure>
<LiquidViscosityRPS name="Liquid viscosity (RPS)" units="Pa.s">
  <eqno value="12" />
  <A value="-2.3451" />
  <B value="-0.014201" />
  <Tmin units="K" value="219.52" />
  <Tmax units="K" value="459.98" />
  </LiquidViscosityRPS>
<COSTALDVolume name="COSTLD characteristic volume (V*)" units="m3/kmol" value="0.507256" />
<DiameterLJ name="Lennard Jones diameter" units="m" value="7.535834E-10" />
<EnergyLJ name="Lennard Jones energy" units="K" value="310.7879" />
<RacketParameter name="Rackett parameter" units="_" value="0.274724" />
<FullerVolume name="Fuller et al. diffusion volume" units="_" value="173.04" />
<MatthiasCopemanC2 name="Mathias-Copeman C2" units="_" value="0" />
<Parachor name="Parachor" units="kg0.25.m3/s0.5/kmol" value="0.0654917" />
<SpecificGravity name="Specific gravity" units="_" value="0.881517" />
<Charge name="Charge" units="_" value="0" />
<CostaldAcentricFactor name="SRK acentric factor" units="_" value="0.36" />
<WilsonVolume name="Wilson volume" units="m3/kmol" value="0.153715" />
<UniquacR name="UNIQUAC r" units="_" value="6.0672" />
<UniquacQ name="UNIQUAC q" units="_" value="4.644" />
<MatthiasCopemanC3 name="Mathias-Copeman C3" units="_" value="0" />
<ChaoSeaderAcentricFactor name="Chao-Seader acentric factor" units="_" value="0.36" />
<ChaoSeaderSolubilityParameter name="Chao-Seader solubility parameter" units="J0.5/m1.5" value="17610" />
<ChaoSeaderLiquidVolume name="Chao-Seader liquid volume" units="m3/kmol" value="0.153715" />
<UnifacVLE name="UNIFAC">
  <group id="1" value="1" />
  <group id="10" value="3" />
  <group id="12" value="2" />
  <group id="13" value="1" />
  </UnifacVLE>
<UnifacLLE name="UNIFAC-LLE">
  <group id="1" value="1" />
  <group id="9" value="3" />
  <group id="11" value="2" />
  <group id="12" value="1" />
  </UnifacLLE>
<Asog name="ASOG">
  <group id="1" value="3" />
  <group id="2" value="1" />
  <group id="10" value="3" />
  <group id="11" value="3" />
  </Asog>
<GCmethod name="PPR78">
  <group id="1" value="3" />
  <group id="7" value="3" />
  <group id="8" value="3" />
  <group id="2" value="1" />
  </GCmethod>
<Umr name="UMR">
  <group id="1" value="1" />
  <group id="10" value="3" />
  <group id="12" value="2" />
  <group id="13" value="1" />
  </Umr>
<ModifiedUnifac name="Modified UNIFAC">
  <group id="1" value="1" />
  <group id="9" value="3" />
  <group id="11" value="2" />
  <group id="12" value="1" />
  </ModifiedUnifac>
<CAS name="CAS number" value="1758-88-9" />
<Smiles name="SMILES" value="c1(C)c(CC)cc(C)cc1" />
</compound>

