<compound>
<LibraryIndex name="Index" value="3258" />
<CompoundID name="Name" value="2-methyl-1-nonene" />
<StructureFormula name="Structure" value="C10H20" />
<Family name="Family" value="11" />
<CriticalTemperature name="Critical temperature" units="K" value="620.9147" />
<CriticalPressure name="Critical pressure" units="Pa" value="2100212" />
<CriticalVolume name="Critical volume" units="m3/kmol" value="0.57212" />
<CriticalCompressibility name="Critical compressibility factor" units="_" value="0.232747" />
<NormalBoilingPointTemperature name="Normal boiling point" units="K" value="441.56" />
<MolecularWeight name="Molecular weight" units="kg/kmol" value="140.2658" />
<LiquidVolumeAtNormalBoilingPoint name="Liquid molar volume at normal boiling point" units="m3/kmol" value="0.18982" />
<AcentricityFactor name="Acentric factor" units="_" value="0.395287" />
<RadiusOfGyration name="Radius of gyration" units="m" value="5.007496E-10" />
<SolubilityParameter name="Solubility parameter" units="J0.5/m1.5" value="14525.32" />
<VanDerWaalsVolume name="Van der Waals volume" units="m3/kmol" value="1.481E+09" />
<VanDerWaalsArea name="Van der Waals area" units="m2/kmol" value="0.105673" />
<HeatOfFormation name="IG heat of formation" units="J/kmol" value="4.753024E+07" />
<GibbsEnergyOfFormation name="IG Gibbs energy of formation" units="J/kmol" value="1.078614E+08" />
<AbsEntropy name="IG absolute entropy" units="J/kmol/K" value="1160656" />
<HeatOfCombustion name="Standard net heat of combustion LHV" units="J/kmol" value="-6.40533E+09" />
<IdealGasHeatCapacityCp name="Ideal gas heat capacity" units="J/kmol/K">
  <eqno value="16" />
  <A value="131655.9" />
  <B value="-592.8028" />
  <C value="13.42493" />
  <D value="0" />
  <E value="0" />
  <Tmin units="K" value="186.2744" />
  <Tmax units="K" value="1500" />
  </IdealGasHeatCapacityCp>
<AntoineVaporPressure name="Antoine" units="Pa">
  <eqno value="10" />
  <A value="21.196" />
  <B value="3630.117" />
  <C value="-66.146" />
  <Tmin units="K" value="325" />
  <Tmax units="K" value="616.9" />
  </AntoineVaporPressure>
<RacketParameter name="Rackett parameter" units="_" value="0.232747" />
<FullerVolume name="Fuller et al. diffusion volume" units="_" value="205.2" />
<Parachor name="Parachor" units="kg0.25.m3/s0.5/kmol" value="0.0747233" />
<SpecificGravity name="Specific gravity" units="_" value="0.83064" />
<Charge name="Charge" units="_" value="0" />
<UniquacR name="UNIQUAC r" units="_" value="6.9659" />
<UniquacQ name="UNIQUAC q" units="_" value="5.924" />
<UniquacQP name="UNIQUAC q'" units="_" value="5.924" />
<UnifacVLE name="UNIFAC">
  <group id="1" value="2" />
  <group id="2" value="6" />
  <group id="7" value="1" />
  </UnifacVLE>
<UnifacLLE name="UNIFAC-LLE">
  <group id="1" value="2" />
  <group id="2" value="6" />
  <group id="8" value="1" />
  </UnifacLLE>
<Asog name="ASOG">
  <group id="1" value="2" />
  <group id="2" value="6" />
  <group id="7" value="1" />
  </Asog>
<GCmethod name="PPR78">
  <group id="1" value="2" />
  <group id="2" value="7" />
  <group id="19" value="1" />
  </GCmethod>
<Umr name="UMR">
  <group id="1" value="2" />
  <group id="2" value="6" />
  <group id="7" value="1" />
  </Umr>
<ModifiedUnifac name="Modified UNIFAC">
  <group id="1" value="2" />
  <group id="2" value="6" />
  <group id="7" value="1" />
  </ModifiedUnifac>
<CAS name="CAS number" value="2980-71-4" />
<Smiles name="SMILES" value="C=C(C)CCCCCCC" />
</compound>

