<compound>
<LibraryIndex name="Index" value="1108" />
<CompoundID name="Name" value="2-methyl-2-propanol" />
<StructureFormula name="Structure" value="C(CH3)3OH" />
<Family name="Family" value="46" />
<CriticalTemperature name="Critical temperature" units="K" value="506.21" />
<CriticalPressure name="Critical pressure" units="Pa" value="3973000" />
<CriticalVolume name="Critical volume" units="m3/kmol" value="0.275" />
<CriticalCompressibility name="Critical compressibility factor" units="_" value="0.26" />
<NormalBoilingPointTemperature name="Normal boiling point" units="K" value="355.49" />
<NormalMeltingPointTemperature name="Melting point" units="K" value="298.97" />
<TriplePointTemperature name="Triple point temperature" units="K" value="298.97" />
<TriplePointPressure name="Triple point pressure" units="Pa" value="5884.28" />
<MolecularWeight name="Molecular weight" units="kg/kmol" value="74.1216" />
<LiquidVolumeAtNormalBoilingPoint name="Liquid molar volume at normal boiling point" units="m3/kmol" value="0.09488" />
<AcentricityFactor name="Acentric factor" units="_" value="0.613" />
<RadiusOfGyration name="Radius of gyration" units="m" value="3.067E-10" />
<SolubilityParameter name="Solubility parameter" units="J0.5/m1.5" value="21620" />
<DipoleMoment name="Dipole moment" units="Coulomb.m" value="5.57E-30" />
<VanDerWaalsVolume name="Van der Waals volume" units="m3/kmol" value="0.05238" />
<VanDerWaalsArea name="Van der Waals area" units="m2/kmol" value="7.62E+08" />
<HeatOfFormation name="IG heat of formation" units="J/kmol" value="-3.124E+08" />
<GibbsEnergyOfFormation name="IG Gibbs energy of formation" units="J/kmol" value="-1.776E+08" />
<AbsEntropy name="IG absolute entropy" units="J/kmol/K" value="326300" />
<HeatOfFusionAtMeltingPoint name="Heat of fusion at melting point" units="J/kmol" value="6703000" />
<MatthiasCopemanC1 name="Mathias-Copeman C1" units="_" value="1.199" />
<HeatOfCombustion name="Standard net heat of combustion LHV" units="J/kmol" value="-2.4239E+09" />
<SolidDensity name="Solid density" units="kmol/m3">
  <eqno value="2" />
  <A value="13.269" />
  <B value="-0.0042735" />
  <Tmin units="K" value="119.59" />
  <Tmax units="K" value="298.97" />
  </SolidDensity>
<LiquidDensity name="Liquid density" units="kmol/m3">
  <eqno value="105" />
  <A value="0.40838" />
  <B value="0.17034" />
  <C value="508.88" />
  <D value="0.1974" />
  <Tmin units="K" value="293.15" />
  <Tmax units="K" value="508.87" />
  </LiquidDensity>
<VaporPressure name="Vapour pressure" units="Pa">
  <eqno value="101" />
  <A value="196.8976" />
  <B value="-12439.78" />
  <C value="-26.03107" />
  <D value="0.0000198743" />
  <E value="2" />
  <Tmin units="K" value="252.75" />
  <Tmax units="K" value="506.2" />
  </VaporPressure>
<HeatOfVaporization name="Heat of vaporization" units="J/kmol">
  <eqno value="106" />
  <A value="9.49928E+07" />
  <B value="1.077392" />
  <C value="-0.185452" />
  <D value="-0.822732" />
  <E value="0.535399" />
  <Tmin units="K" value="298" />
  <Tmax units="K" value="506.2" />
  </HeatOfVaporization>
<SolidHeatCapacityCp name="Solid heat capacity" units="J/kmol/K">
  <eqno value="100" />
  <A value="6950.4" />
  <B value="346.65" />
  <C value="4.7374" />
  <D value="-0.035946" />
  <E value="0.000081348" />
  <Tmin units="K" value="25" />
  <Tmax units="K" value="286.13" />
  </SolidHeatCapacityCp>
<LiquidHeatCapacityCp name="Liquid heat capacity" units="J/kmol/K">
  <eqno value="16" />
  <A value="-158220" />
  <B value="-166.8" />
  <C value="13.168" />
  <D value="0.0013959" />
  <E value="-0.0000019876" />
  <Tmin units="K" value="298.15" />
  <Tmax units="K" value="460" />
  </LiquidHeatCapacityCp>
<IdealGasHeatCapacityCp name="Ideal gas heat capacity" units="J/kmol/K">
  <eqno value="16" />
  <A value="65560" />
  <B value="-540.88" />
  <C value="12.558" />
  <D value="0.00014695" />
  <E value="-5.2324E-08" />
  <Tmin units="K" value="200" />
  <Tmax units="K" value="1500" />
  </IdealGasHeatCapacityCp>
<SecondVirialCoefficient name="Second virial coefficient" units="m3/kmol">
  <eqno value="104" />
  <A value="0.18659" />
  <B value="-157.11" />
  <C value="-31.789" />
  <D value="-4775.1" />
  <E value="5156.6" />
  <Tmin units="K" value="253.1" />
  <Tmax units="K" value="1500" />
  </SecondVirialCoefficient>
<LiquidViscosity name="Liquid viscosity" units="Pa.s">
  <eqno value="101" />
  <A value="-933.24" />
  <B value="39184" />
  <C value="142.25" />
  <D value="-0.0001583" />
  <E value="2" />
  <Tmin units="K" value="293.15" />
  <Tmax units="K" value="451.21" />
  </LiquidViscosity>
<VaporViscosity name="Vapour viscosity" units="Pa.s">
  <eqno value="102" />
  <A value="2.5934E-07" />
  <B value="0.64853" />
  <C value="136.6" />
  <D value="9124.5" />
  <Tmin units="K" value="298.97" />
  <Tmax units="K" value="600" />
  </VaporViscosity>
<LiquidThermalConductivity name="Liquid thermal conductivity" units="W/m/K">
  <eqno value="16" />
  <A value="0.0056947" />
  <B value="358.71" />
  <C value="-5.5774" />
  <D value="0.012913" />
  <E value="-0.000018273" />
  <Tmin units="K" value="298.97" />
  <Tmax units="K" value="404.96" />
  </LiquidThermalConductivity>
<VaporThermalConductivity name="Vapour thermal conductivity" units="W/m/K">
  <eqno value="102" />
  <A value="4.2365E-07" />
  <B value="1.7929" />
  <C value="-130.93" />
  <D value="17989" />
  <Tmin units="K" value="255.9278" />
  <Tmax units="K" value="766.87" />
  </VaporThermalConductivity>
<SurfaceTension name="Surface tension" units="N/m">
  <eqno value="16" />
  <A value="0.0025589" />
  <B value="-1098.2" />
  <C value="4.0953" />
  <D value="-0.014096" />
  <E value="-0.0000031561" />
  <Tmin units="K" value="288.15" />
  <Tmax units="K" value="355.57" />
  </SurfaceTension>
<RPPHeatCapacityCp name="Ideal gas heat capacity (RPP)" units="J/kmol/K">
  <eqno value="100" />
  <A value="21709" />
  <B value="299.75" />
  <C value="0.12613" />
  <D value="-0.00036251" />
  <E value="1.6188E-07" />
  <Tmin units="K" value="50" />
  <Tmax units="K" value="1000" />
  </RPPHeatCapacityCp>
<AntoineVaporPressure name="Antoine" units="Pa">
  <eqno value="10" />
  <A value="21.291" />
  <B value="2437.7" />
  <C value="-105.93" />
  <Tmin units="K" value="303.83" />
  <Tmax units="K" value="451.67" />
  </AntoineVaporPressure>
<LiquidViscosityRPS name="Liquid viscosity (RPS)" units="Pa.s">
  <eqno value="13" />
  <A value="17.837" />
  <B value="-0.11457" />
  <C value="0.00012188" />
  <Tmin units="K" value="293.15" />
  <Tmax units="K" value="451.21" />
  </LiquidViscosityRPS>
<COSTALDVolume name="COSTLD characteristic volume (V*)" units="m3/kmol" value="0.2876" />
<DiameterLJ name="Lennard Jones diameter" units="m" value="6.110187E-10" />
<EnergyLJ name="Lennard Jones energy" units="K" value="258.9095" />
<FullerVolume name="Fuller et al. diffusion volume" units="_" value="92.81" />
<MatthiasCopemanC2 name="Mathias-Copeman C2" units="_" value="1.1555" />
<Parachor name="Parachor" units="kg0.25.m3/s0.5/kmol" value="0.0466" />
<SpecificGravity name="Specific gravity" units="_" value="0.781255" />
<Charge name="Charge" units="_" value="0" />
<CostaldAcentricFactor name="SRK acentric factor" units="_" value="0.61339" />
<WilsonVolume name="Wilson volume" units="m3/kmol" value="0.09488" />
<UniquacR name="UNIQUAC r" units="_" value="3.4528" />
<UniquacQ name="UNIQUAC q" units="_" value="3.128" />
<UniquacQP name="UNIQUAC q'" units="_" value="0.88" />
<ApiSrkS1 name="API-SRK s1" units="_" value="0.745244" />
<ApiSrkS2 name="API-SRK s2" units="_" value="0.484002" />
<MatthiasCopemanC3 name="Mathias-Copeman C3" units="_" value="-0.2932" />
<ChaoSeaderAcentricFactor name="Chao-Seader acentric factor" units="_" value="0.612" />
<ChaoSeaderSolubilityParameter name="Chao-Seader solubility parameter" units="J0.5/m1.5" value="21491.8" />
<ChaoSeaderLiquidVolume name="Chao-Seader liquid volume" units="m3/kmol" value="0.0948614" />
<UnifacVLE name="UNIFAC">
  <group id="1" value="3" />
  <group id="4" value="1" />
  <group id="15" value="1" />
  </UnifacVLE>
<UnifacLLE name="UNIFAC-LLE">
  <group id="1" value="3" />
  <group id="4" value="1" />
  <group id="14" value="1" />
  </UnifacLLE>
<Asog name="ASOG">
  <group id="1" value="3" />
  <group id="4" value="1" />
  <group id="15" value="1" />
  </Asog>
<GCmethod name="PPR78">
  <group id="1" value="3" />
  <group id="4" value="1" />
  <group id="41" value="1" />
  </GCmethod>
<Umr name="UMR">
  <group id="1" value="3" />
  <group id="4" value="1" />
  <group id="15" value="1" />
  </Umr>
<ModifiedUnifac name="Modified UNIFAC">
  <group id="1" value="3" />
  <group id="4" value="1" />
  <group id="14" value="1" />
  </ModifiedUnifac>
<CAS name="CAS number" value="75-65-0" />
<Smiles name="SMILES" value="CC(C)(O)C" />
</compound>

