<compound>
<LibraryIndex name="Index" value="22158" />
<CompoundID name="Name" value="2-methoxy-2-methyl-heptane" />
<StructureFormula name="Structure" value="(CH3O)(CH3)2 C(CH2)4 CH3" />
<Family name="Family" value="61" />
<CriticalTemperature name="Critical temperature" units="K" value="618.2025" />
<CriticalPressure name="Critical pressure" units="Pa" value="2357849" />
<CriticalVolume name="Critical volume" units="m3/kmol" value="0.53093" />
<CriticalCompressibility name="Critical compressibility factor" units="_" value="0.24355" />
<NormalBoilingPointTemperature name="Normal boiling point" units="K" value="446.7301" />
<MolecularWeight name="Molecular weight" units="kg/kmol" value="144.2545" />
<LiquidVolumeAtNormalBoilingPoint name="Liquid molar volume at normal boiling point" units="m3/kmol" value="0.18511" />
<AcentricityFactor name="Acentric factor" units="_" value="0.433286" />
<SolubilityParameter name="Solubility parameter" units="J0.5/m1.5" value="14871.82" />
<VanDerWaalsVolume name="Van der Waals volume" units="m3/kmol" value="0.102631" />
<VanDerWaalsArea name="Van der Waals area" units="m2/kmol" value="1.448E+09" />
<HeatOfFormation name="IG heat of formation" units="J/kmol" value="-9790565" />
<GibbsEnergyOfFormation name="IG Gibbs energy of formation" units="J/kmol" value="-6.029269" />
<AbsEntropy name="IG absolute entropy" units="J/kmol/K" value="1629362" />
<HeatOfFusionAtMeltingPoint name="Heat of fusion at melting point" units="J/kmol" value="0" />
<HeatOfCombustion name="Standard net heat of combustion LHV" units="J/kmol" value="-5.95423E+09" />
<VaporPressure name="Vapour pressure" units="Pa">
  <eqno value="200" />
  <A value="-8.2705" />
  <B value="2.1937" />
  <C value="-3.6992" />
  <D value="-3.7256" />
  <E value="2357800" />
  <Tmin units="K" value="312.71" />
  <Tmax units="K" value="618.2" />
  </VaporPressure>
<HeatOfVaporization name="Heat of vaporization" units="J/kmol">
  <eqno value="106" />
  <A value="6.6655E+07" />
  <B value="0.38" />
  <C value="0" />
  <D value="0" />
  <E value="0" />
  <Tmin units="K" value="312.71" />
  <Tmax units="K" value="618.2" />
  </HeatOfVaporization>
<SolidHeatCapacityCp name="Solid heat capacity" units="J/kmol/K">
  <eqno value="1" />
  <A value="262630" />
  <Tmin units="K" value="0" />
  <Tmax units="K" value="618.2" />
  </SolidHeatCapacityCp>
<IdealGasHeatCapacityCp name="Ideal gas heat capacity" units="J/kmol/K">
  <eqno value="16" />
  <A value="112918.2" />
  <B value="-500" />
  <C value="13.33484" />
  <D value="0" />
  <E value="0" />
  <Tmin units="K" value="255" />
  <Tmax units="K" value="1500" />
  </IdealGasHeatCapacityCp>
<VaporViscosity name="Vapour viscosity" units="Pa.s">
  <eqno value="2" />
  <A value="-4.0287E-08" />
  <B value="1.4474E-08" />
  <Tmin units="K" value="446.73" />
  <Tmax units="K" value="1000" />
  </VaporViscosity>
<RPPHeatCapacityCp name="Ideal gas heat capacity (RPP)" units="J/kmol/K">
  <eqno value="4" />
  <A value="4302" />
  <B value="902.18" />
  <C value="-0.49999" />
  <D value="0.00010387" />
  <Tmin units="K" value="185.46" />
  <Tmax units="K" value="1500" />
  </RPPHeatCapacityCp>
<AntoineVaporPressure name="Antoine" units="Pa">
  <eqno value="10" />
  <A value="20.91" />
  <B value="3457.7" />
  <C value="-78.254" />
  <Tmin units="K" value="312.71" />
  <Tmax units="K" value="618.2" />
  </AntoineVaporPressure>
<COSTALDVolume name="COSTLD characteristic volume (V*)" units="m3/kmol" value="0.573677" />
<DiameterLJ name="Lennard Jones diameter" units="m" value="8.229094E-10" />
<EnergyLJ name="Lennard Jones energy" units="K" value="249.8964" />
<RacketParameter name="Rackett parameter" units="_" value="0.24355" />
<FullerVolume name="Fuller et al. diffusion volume" units="_" value="195.41" />
<Parachor name="Parachor" units="kg0.25.m3/s0.5/kmol" value="0.0641327" />
<Charge name="Charge" units="_" value="0" />
<CostaldAcentricFactor name="SRK acentric factor" units="_" value="0.433286" />
<WilsonVolume name="Wilson volume" units="m3/kmol" value="0.18511" />
<UniquacR name="UNIQUAC r" units="_" value="6.7654" />
<UniquacQ name="UNIQUAC q" units="_" value="5.792" />
<ChaoSeaderAcentricFactor name="Chao-Seader acentric factor" units="_" value="0.433286" />
<ChaoSeaderSolubilityParameter name="Chao-Seader solubility parameter" units="J0.5/m1.5" value="14871.82" />
<ChaoSeaderLiquidVolume name="Chao-Seader liquid volume" units="m3/kmol" value="0.18511" />
<UnifacVLE name="UNIFAC">
  <group id="1" value="2" />
  <group id="2" value="5" />
  <group id="3" value="1" />
  <group id="25" value="1" />
  </UnifacVLE>
<UnifacLLE name="UNIFAC-LLE">
  <group id="1" value="2" />
  <group id="2" value="5" />
  <group id="3" value="1" />
  <group id="27" value="1" />
  </UnifacLLE>
<Asog name="ASOG">
  <group id="1" value="4" />
  <group id="2" value="4" />
  <group id="4" value="1" />
  <group id="19" value="1" />
  </Asog>
<Umr name="UMR">
  <group id="1" value="2" />
  <group id="2" value="5" />
  <group id="3" value="1" />
  <group id="25" value="1" />
  </Umr>
<ModifiedUnifac name="Modified UNIFAC">
  <group id="1" value="2" />
  <group id="2" value="5" />
  <group id="3" value="1" />
  <group id="24" value="1" />
  </ModifiedUnifac>
<CAS name="CAS number" value="76589-16-7" />
<Smiles name="SMILES" value="CCCCCC(C)COC" />
</compound>

