<compound>
<LibraryIndex name="Index" value="18" />
<CompoundID name="Name" value="2-methylhexane" />
<StructureFormula name="Structure" value="CH3CH(CH3)(CH2)3CH3" />
<Family name="Family" value="2" />
<CriticalTemperature name="Critical temperature" units="K" value="530.1" />
<CriticalPressure name="Critical pressure" units="Pa" value="2730000" />
<CriticalVolume name="Critical volume" units="m3/kmol" value="0.421" />
<CriticalCompressibility name="Critical compressibility factor" units="_" value="0.261" />
<NormalBoilingPointTemperature name="Normal boiling point" units="K" value="363.18" />
<NormalMeltingPointTemperature name="Melting point" units="K" value="154.9" />
<TriplePointTemperature name="Triple point temperature" units="K" value="154.9" />
<TriplePointPressure name="Triple point pressure" units="Pa" value="0.00429886" />
<MolecularWeight name="Molecular weight" units="kg/kmol" value="100.202" />
<LiquidVolumeAtNormalBoilingPoint name="Liquid molar volume at normal boiling point" units="m3/kmol" value="0.1486" />
<AcentricityFactor name="Acentric factor" units="_" value="0.331" />
<RadiusOfGyration name="Radius of gyration" units="m" value="4.167E-10" />
<SolubilityParameter name="Solubility parameter" units="J0.5/m1.5" value="14730" />
<DipoleMoment name="Dipole moment" units="Coulomb.m" value="0" />
<VanDerWaalsVolume name="Van der Waals volume" units="m3/kmol" value="0.07848" />
<VanDerWaalsArea name="Van der Waals area" units="m2/kmol" value="1.098E+09" />
<HeatOfFormation name="IG heat of formation" units="J/kmol" value="-1.9472E+08" />
<GibbsEnergyOfFormation name="IG Gibbs energy of formation" units="J/kmol" value="3470000" />
<AbsEntropy name="IG absolute entropy" units="J/kmol/K" value="420410" />
<HeatOfFusionAtMeltingPoint name="Heat of fusion at melting point" units="J/kmol" value="9184000" />
<MatthiasCopemanC1 name="Mathias-Copeman C1" units="_" value="1.021" />
<HeatOfCombustion name="Standard net heat of combustion LHV" units="J/kmol" value="-4.45935E+09" />
<SolidDensity name="Solid density" units="kmol/m3">
  <eqno value="2" />
  <A value="9.913" />
  <B value="-0.0071489" />
  <C value="0" />
  <D value="0" />
  <E value="0" />
  <Tmin units="K" value="61.96" />
  <Tmax units="K" value="154.9" />
  </SolidDensity>
<LiquidDensity name="Liquid density" units="kmol/m3">
  <eqno value="105" />
  <A value="0.4821" />
  <B value="0.23526" />
  <C value="530.41" />
  <D value="0.23824" />
  <Tmin units="K" value="154.9" />
  <Tmax units="K" value="530.4" />
  </LiquidDensity>
<VaporPressure name="Vapour pressure" units="Pa">
  <eqno value="101" />
  <A value="90.20617" />
  <B value="-6876.202" />
  <C value="-10.31895" />
  <D value="8.219062E-06" />
  <E value="2" />
  <Tmin units="K" value="154.9" />
  <Tmax units="K" value="530.4" />
  </VaporPressure>
<HeatOfVaporization name="Heat of vaporization" units="J/kmol">
  <eqno value="106" />
  <A value="4.861947E+07" />
  <B value="0.640142" />
  <C value="-0.832218" />
  <D value="0.945728" />
  <E value="-0.370956" />
  <Tmin units="K" value="154.9" />
  <Tmax units="K" value="510.64" />
  </HeatOfVaporization>
<SolidHeatCapacityCp name="Solid heat capacity" units="J/kmol/K">
  <eqno value="100" />
  <A value="-93650" />
  <B value="5393.4" />
  <C value="-66.789" />
  <D value="0.4004" />
  <E value="-0.00085798" />
  <Tmin units="K" value="60" />
  <Tmax units="K" value="154.91" />
  </SolidHeatCapacityCp>
<LiquidHeatCapacityCp name="Liquid heat capacity" units="J/kmol/K">
  <eqno value="16" />
  <A value="142210" />
  <B value="82.605" />
  <C value="8.5784" />
  <D value="0.010085" />
  <E value="-0.000006336" />
  <Tmin units="K" value="154.9" />
  <Tmax units="K" value="363.2" />
  </LiquidHeatCapacityCp>
<IdealGasHeatCapacityCp name="Ideal gas heat capacity" units="J/kmol/K">
  <eqno value="16" />
  <A value="88324" />
  <B value="-552.27" />
  <C value="13.044" />
  <D value="0.00017909" />
  <E value="-6.2753E-08" />
  <Tmin units="K" value="200" />
  <Tmax units="K" value="1500" />
  </IdealGasHeatCapacityCp>
<SecondVirialCoefficient name="Second virial coefficient" units="m3/kmol">
  <eqno value="104" />
  <A value="0.24129" />
  <B value="-294.06" />
  <C value="-38.004" />
  <D value="-4376.2" />
  <E value="6364" />
  <Tmin units="K" value="265" />
  <Tmax units="K" value="1931" />
  </SecondVirialCoefficient>
<LiquidViscosity name="Liquid viscosity" units="Pa.s">
  <eqno value="101" />
  <A value="-10.237" />
  <B value="971.42" />
  <C value="-0.18335" />
  <D value="0.0000010057" />
  <E value="2" />
  <Tmin units="K" value="154.9" />
  <Tmax units="K" value="400" />
  </LiquidViscosity>
<VaporViscosity name="Vapour viscosity" units="Pa.s">
  <eqno value="102" />
  <A value="0.0000041509" />
  <B value="0.28637" />
  <C value="700.76" />
  <D value="14523" />
  <Tmin units="K" value="154.9" />
  <Tmax units="K" value="1000" />
  </VaporViscosity>
<LiquidThermalConductivity name="Liquid thermal conductivity" units="W/m/K">
  <eqno value="16" />
  <A value="0.060786" />
  <B value="305.44" />
  <C value="-6.3461" />
  <D value="0.018265" />
  <E value="-0.000033419" />
  <Tmin units="K" value="154.9" />
  <Tmax units="K" value="426.33" />
  </LiquidThermalConductivity>
<VaporThermalConductivity name="Vapour thermal conductivity" units="W/m/K">
  <eqno value="102" />
  <A value="0.000062491" />
  <B value="1.0749" />
  <C value="-62.587" />
  <D value="153720" />
  <Tmin units="K" value="154.9" />
  <Tmax units="K" value="1000" />
  </VaporThermalConductivity>
<SurfaceTension name="Surface tension" units="N/m">
  <eqno value="16" />
  <A value="-0.013533" />
  <B value="18.468" />
  <C value="-3.0315" />
  <D value="-0.00031495" />
  <E value="-0.0000041446" />
  <Tmin units="K" value="154.9" />
  <Tmax units="K" value="510.64" />
  </SurfaceTension>
<RPPHeatCapacityCp name="Ideal gas heat capacity (RPP)" units="J/kmol/K">
  <eqno value="100" />
  <A value="28702" />
  <B value="385.57" />
  <C value="0.45281" />
  <D value="-0.00082105" />
  <E value="3.3998E-07" />
  <Tmin units="K" value="200" />
  <Tmax units="K" value="1000" />
  </RPPHeatCapacityCp>
<RelativeStaticPermittivity name="Relative static permittivity" units="_">
  <eqno value="120" />
  <A value="-1.404923" />
  <B value="-950" />
  <C value="-5.7" />
  <Tmin units="K" value="274.15" />
  <Tmax units="K" value="444.15" />
  </RelativeStaticPermittivity>
<AntoineVaporPressure name="Antoine" units="Pa">
  <eqno value="10" />
  <A value="20.843" />
  <B value="2915.6" />
  <C value="-50.214" />
  <Tmin units="K" value="318.13" />
  <Tmax units="K" value="473.15" />
  </AntoineVaporPressure>
<LiquidViscosityRPS name="Liquid viscosity (RPS)" units="Pa.s">
  <eqno value="12" />
  <A value="-3.256" />
  <B value="-0.015273" />
  <Tmin units="K" value="154.9" />
  <Tmax units="K" value="363.2" />
  </LiquidViscosityRPS>
<COSTALDVolume name="COSTLD characteristic volume (V*)" units="m3/kmol" value="0.425893" />
<DiameterLJ name="Lennard Jones diameter" units="m" value="7.009769E-10" />
<EnergyLJ name="Lennard Jones energy" units="K" value="274.9013" />
<RacketParameter name="Rackett parameter" units="_" value="0.261" />
<FullerVolume name="Fuller et al. diffusion volume" units="_" value="148.26" />
<MatthiasCopemanC2 name="Mathias-Copeman C2" units="_" value="-0.44187" />
<Parachor name="Parachor" units="kg0.25.m3/s0.5/kmol" value="0.0548484" />
<SpecificGravity name="Specific gravity" units="_" value="0.682411" />
<Charge name="Charge" units="_" value="0" />
<CostaldAcentricFactor name="SRK acentric factor" units="_" value="0.331" />
<WilsonVolume name="Wilson volume" units="m3/kmol" value="0.1486" />
<UniquacR name="UNIQUAC r" units="_" value="5.1734" />
<UniquacQ name="UNIQUAC q" units="_" value="4.392" />
<ApiSrkS2 name="API-SRK s2" units="_" value="-0.002745" />
<MatthiasCopemanC3 name="Mathias-Copeman C3" units="_" value="0.96509" />
<ChaoSeaderAcentricFactor name="Chao-Seader acentric factor" units="_" value="0.331" />
<ChaoSeaderSolubilityParameter name="Chao-Seader solubility parameter" units="J0.5/m1.5" value="14730" />
<ChaoSeaderLiquidVolume name="Chao-Seader liquid volume" units="m3/kmol" value="0.1486" />
<UnifacVLE name="UNIFAC">
  <group id="1" value="3" />
  <group id="2" value="3" />
  <group id="3" value="1" />
  </UnifacVLE>
<UnifacLLE name="UNIFAC-LLE">
  <group id="1" value="3" />
  <group id="2" value="3" />
  <group id="3" value="1" />
  </UnifacLLE>
<Asog name="ASOG">
  <group id="1" value="3" />
  <group id="2" value="3" />
  <group id="3" value="1" />
  </Asog>
<GCmethod name="PPR78">
  <group id="1" value="3" />
  <group id="2" value="3" />
  <group id="3" value="1" />
  </GCmethod>
<Umr name="UMR">
  <group id="1" value="3" />
  <group id="2" value="3" />
  <group id="3" value="1" />
  </Umr>
<ModifiedUnifac name="Modified UNIFAC">
  <group id="1" value="3" />
  <group id="2" value="3" />
  <group id="3" value="1" />
  </ModifiedUnifac>
<CAS name="CAS number" value="591-76-4" />
<Smiles name="SMILES" value="CC(C)CCCC" />
</compound>

