<compound>
<LibraryIndex name="Index" value="1006" />
<CompoundID name="Name" value="2-methylpropanal" />
<StructureFormula name="Structure" value="CH3CH(CH3)CHO" />
<Family name="Family" value="25" />
<CriticalTemperature name="Critical temperature" units="K" value="507" />
<CriticalPressure name="Critical pressure" units="Pa" value="4100000" />
<CriticalVolume name="Critical volume" units="m3/kmol" value="0.263" />
<CriticalCompressibility name="Critical compressibility factor" units="_" value="0.256" />
<NormalBoilingPointTemperature name="Normal boiling point" units="K" value="337.25" />
<NormalMeltingPointTemperature name="Melting point" units="K" value="208.15" />
<TriplePointTemperature name="Triple point temperature" units="K" value="208.15" />
<TriplePointPressure name="Triple point pressure" units="Pa" value="34.8247" />
<MolecularWeight name="Molecular weight" units="kg/kmol" value="72.10572" />
<LiquidVolumeAtNormalBoilingPoint name="Liquid molar volume at normal boiling point" units="m3/kmol" value="0.0920264" />
<AcentricityFactor name="Acentric factor" units="_" value="0.36218" />
<RadiusOfGyration name="Radius of gyration" units="m" value="3.176E-10" />
<SolubilityParameter name="Solubility parameter" units="J0.5/m1.5" value="18450" />
<DipoleMoment name="Dipole moment" units="Coulomb.m" value="9.0E-30" />
<VanDerWaalsVolume name="Van der Waals volume" units="m3/kmol" value="0.04927" />
<VanDerWaalsArea name="Van der Waals area" units="m2/kmol" value="7.19E+08" />
<HeatOfFormation name="IG heat of formation" units="J/kmol" value="-2.158E+08" />
<GibbsEnergyOfFormation name="IG Gibbs energy of formation" units="J/kmol" value="-1.214E+08" />
<AbsEntropy name="IG absolute entropy" units="J/kmol/K" value="331200" />
<HeatOfFusionAtMeltingPoint name="Heat of fusion at melting point" units="J/kmol" value="1.2E+07" />
<MatthiasCopemanC1 name="Mathias-Copeman C1" units="_" value="1.0845" />
<HeatOfCombustion name="Standard net heat of combustion LHV" units="J/kmol" value="-2.2913E+09" />
<SolidDensity name="Solid density" units="kmol/m3">
  <eqno value="2" />
  <A value="15.457" />
  <B value="-0.0083248" />
  <Tmin units="K" value="83.26" />
  <Tmax units="K" value="208.15" />
  </SolidDensity>
<LiquidDensity name="Liquid density" units="kmol/m3">
  <eqno value="105" />
  <A value="0.97266" />
  <B value="0.25698" />
  <C value="507" />
  <D value="0.28571" />
  <Tmin units="K" value="208.15" />
  <Tmax units="K" value="507" />
  </LiquidDensity>
<VaporPressure name="Vapour pressure" units="Pa">
  <eqno value="101" />
  <A value="102.1731" />
  <B value="-7116.016" />
  <C value="-12.16592" />
  <D value="0.0000111612" />
  <E value="2" />
  <Tmin units="K" value="208.15" />
  <Tmax units="K" value="507" />
  </VaporPressure>
<HeatOfVaporization name="Heat of vaporization" units="J/kmol">
  <eqno value="106" />
  <A value="4.95108E+07" />
  <B value="0.263532" />
  <C value="1.209662" />
  <D value="-2.271572" />
  <E value="1.223299" />
  <Tmin units="K" value="208.15" />
  <Tmax units="K" value="507" />
  </HeatOfVaporization>
<SolidHeatCapacityCp name="Solid heat capacity" units="J/kmol/K">
  <eqno value="1" />
  <A value="117460" />
  <Tmin units="K" value="0" />
  <Tmax units="K" value="0" />
  </SolidHeatCapacityCp>
<LiquidHeatCapacityCp name="Liquid heat capacity" units="J/kmol/K">
  <eqno value="16" />
  <A value="143330" />
  <B value="110.87" />
  <C value="5.2999" />
  <D value="0.018869" />
  <E value="-0.000016131" />
  <Tmin units="K" value="214.6" />
  <Tmax units="K" value="380.25" />
  </LiquidHeatCapacityCp>
<IdealGasHeatCapacityCp name="Ideal gas heat capacity" units="J/kmol/K">
  <eqno value="16" />
  <A value="68500" />
  <B value="-741.45" />
  <C value="12.977" />
  <D value="-0.00061649" />
  <E value="3.0243E-07" />
  <Tmin units="K" value="208.15" />
  <Tmax units="K" value="1200.1" />
  </IdealGasHeatCapacityCp>
<SecondVirialCoefficient name="Second virial coefficient" units="m3/kmol">
  <eqno value="104" />
  <A value="0.17413" />
  <B value="-177.39" />
  <C value="-23.578" />
  <D value="-1169.2" />
  <E value="-870.73" />
  <Tmin units="K" value="253.5" />
  <Tmax units="K" value="1500" />
  </SecondVirialCoefficient>
<LiquidViscosity name="Liquid viscosity" units="Pa.s">
  <eqno value="101" />
  <A value="-10.535" />
  <B value="970.52" />
  <C value="-0.049339" />
  <D value="1.1673E-08" />
  <E value="2" />
  <Tmin units="K" value="208.15" />
  <Tmax units="K" value="407" />
  </LiquidViscosity>
<VaporViscosity name="Vapour viscosity" units="Pa.s">
  <eqno value="102" />
  <A value="1.9586E-07" />
  <B value="0.71384" />
  <C value="159.71" />
  <D value="-212.67" />
  <Tmin units="K" value="208.15" />
  <Tmax units="K" value="1000" />
  </VaporViscosity>
<LiquidThermalConductivity name="Liquid thermal conductivity" units="W/m/K">
  <eqno value="16" />
  <A value="0.10024" />
  <B value="-223.61" />
  <C value="-0.25771" />
  <D value="-0.00474" />
  <E value="-0.000011884" />
  <Tmin units="K" value="208.15" />
  <Tmax units="K" value="337.25" />
  </LiquidThermalConductivity>
<VaporThermalConductivity name="Vapour thermal conductivity" units="W/m/K">
  <eqno value="102" />
  <A value="-2151.4" />
  <B value="-0.21039" />
  <C value="974960" />
  <D value="-5.0943E+09" />
  <Tmin units="K" value="208.15" />
  <Tmax units="K" value="1000" />
  </VaporThermalConductivity>
<SurfaceTension name="Surface tension" units="N/m">
  <eqno value="16" />
  <A value="-0.0080335" />
  <B value="138.78" />
  <C value="-4.3351" />
  <D value="0.0046959" />
  <E value="-0.000012308" />
  <Tmin units="K" value="208.15" />
  <Tmax units="K" value="507" />
  </SurfaceTension>
<RPPHeatCapacityCp name="Ideal gas heat capacity (RPP)" units="J/kmol/K">
  <eqno value="4" />
  <A value="-1651.2" />
  <B value="409.22" />
  <C value="-0.26544" />
  <D value="0.000076956" />
  <Tmin units="K" value="208.15" />
  <Tmax units="K" value="1200.1" />
  </RPPHeatCapacityCp>
<AntoineVaporPressure name="Antoine" units="Pa">
  <eqno value="10" />
  <A value="22.001" />
  <B value="3260.1" />
  <C value="-26.391" />
  <Tmin units="K" value="309.26" />
  <Tmax units="K" value="444.08" />
  </AntoineVaporPressure>
<LiquidViscosityRPS name="Liquid viscosity (RPS)" units="Pa.s">
  <eqno value="13" />
  <A value="0.27451" />
  <B value="-0.041473" />
  <C value="0.000050862" />
  <Tmin units="K" value="208.15" />
  <Tmax units="K" value="337.25" />
  </LiquidViscosityRPS>
<COSTALDVolume name="COSTLD characteristic volume (V*)" units="m3/kmol" value="0.261872" />
<DiameterLJ name="Lennard Jones diameter" units="m" value="6.133037E-10" />
<EnergyLJ name="Lennard Jones energy" units="K" value="245.2365" />
<FullerVolume name="Fuller et al. diffusion volume" units="_" value="88.19" />
<MatthiasCopemanC2 name="Mathias-Copeman C2" units="_" value="-1.0423" />
<Parachor name="Parachor" units="kg0.25.m3/s0.5/kmol" value="0.0348" />
<SpecificGravity name="Specific gravity" units="_" value="0.79414" />
<Charge name="Charge" units="_" value="0" />
<CostaldAcentricFactor name="SRK acentric factor" units="_" value="0.37009" />
<WilsonVolume name="Wilson volume" units="m3/kmol" value="0.0920137" />
<UniquacR name="UNIQUAC r" units="_" value="3.2471" />
<UniquacQ name="UNIQUAC q" units="_" value="2.872" />
<MatthiasCopemanC3 name="Mathias-Copeman C3" units="_" value="1.9594" />
<ChaoSeaderAcentricFactor name="Chao-Seader acentric factor" units="_" value="0.37009" />
<ChaoSeaderSolubilityParameter name="Chao-Seader solubility parameter" units="J0.5/m1.5" value="18234.6" />
<ChaoSeaderLiquidVolume name="Chao-Seader liquid volume" units="m3/kmol" value="0.0920137" />
<UnifacVLE name="UNIFAC">
  <group id="1" value="2" />
  <group id="3" value="1" />
  <group id="21" value="1" />
  </UnifacVLE>
<UnifacLLE name="UNIFAC-LLE">
  <group id="1" value="2" />
  <group id="3" value="1" />
  <group id="21" value="1" />
  </UnifacLLE>
<Asog name="ASOG">
  <group id="1" value="2" />
  <group id="3" value="1" />
  <group id="20" value="1" />
  </Asog>
<Umr name="UMR">
  <group id="1" value="2" />
  <group id="3" value="1" />
  <group id="21" value="1" />
  </Umr>
<ModifiedUnifac name="Modified UNIFAC">
  <group id="1" value="2" />
  <group id="3" value="1" />
  <group id="20" value="1" />
  </ModifiedUnifac>
<CAS name="CAS number" value="78-84-2" />
<Smiles name="SMILES" value="CC(C)C=O" />
</compound>

