<compound>
<LibraryIndex name="Index" value="38" />
<CompoundID name="Name" value="2-methyl-3-ethylpentane" />
<StructureFormula name="Structure" value="CH3CH(CH3)CH(CH2CH3)CH2CH3" />
<Family name="Family" value="4" />
<CriticalTemperature name="Critical temperature" units="K" value="567" />
<CriticalPressure name="Critical pressure" units="Pa" value="2700000" />
<CriticalVolume name="Critical volume" units="m3/kmol" value="0.4453" />
<CriticalCompressibility name="Critical compressibility factor" units="_" value="0.254" />
<NormalBoilingPointTemperature name="Normal boiling point" units="K" value="388.81" />
<NormalMeltingPointTemperature name="Melting point" units="K" value="158.2" />
<TriplePointTemperature name="Triple point temperature" units="K" value="158.2" />
<TriplePointPressure name="Triple point pressure" units="Pa" value="0.000447428" />
<MolecularWeight name="Molecular weight" units="kg/kmol" value="114.2285" />
<LiquidVolumeAtNormalBoilingPoint name="Liquid molar volume at normal boiling point" units="m3/kmol" value="0.15972" />
<AcentricityFactor name="Acentric factor" units="_" value="0.331" />
<RadiusOfGyration name="Radius of gyration" units="m" value="4.181E-10" />
<SolubilityParameter name="Solubility parameter" units="J0.5/m1.5" value="15140" />
<DipoleMoment name="Dipole moment" units="Coulomb.m" value="0" />
<VanDerWaalsVolume name="Van der Waals volume" units="m3/kmol" value="0.0886999" />
<VanDerWaalsArea name="Van der Waals area" units="m2/kmol" value="1.232E+09" />
<HeatOfFormation name="IG heat of formation" units="J/kmol" value="-2.11208E+08" />
<GibbsEnergyOfFormation name="IG Gibbs energy of formation" units="J/kmol" value="1.87861E+07" />
<AbsEntropy name="IG absolute entropy" units="J/kmol/K" value="443760" />
<HeatOfFusionAtMeltingPoint name="Heat of fusion at melting point" units="J/kmol" value="1.13386E+07" />
<MatthiasCopemanC1 name="Mathias-Copeman C1" units="_" value="0.97631" />
<HeatOfCombustion name="Standard net heat of combustion LHV" units="J/kmol" value="-5.07477E+09" />
<SolidDensity name="Solid density" units="kmol/m3">
  <eqno value="2" />
  <A value="8.9908" />
  <B value="-0.0063143" />
  <C value="0" />
  <D value="0" />
  <E value="0" />
  <Tmin units="K" value="63.28" />
  <Tmax units="K" value="158.2" />
  </SolidDensity>
<LiquidDensity name="Liquid density" units="kmol/m3">
  <eqno value="105" />
  <A value="0.54567" />
  <B value="0.26412" />
  <C value="567.03" />
  <D value="0.24308" />
  <Tmin units="K" value="158.2" />
  <Tmax units="K" value="567.02" />
  </LiquidDensity>
<VaporPressure name="Vapour pressure" units="Pa">
  <eqno value="101" />
  <A value="92.12933" />
  <B value="-7403.468" />
  <C value="-10.51119" />
  <D value="7.396006E-06" />
  <E value="2" />
  <Tmin units="K" value="158.2" />
  <Tmax units="K" value="567.1" />
  </VaporPressure>
<HeatOfVaporization name="Heat of vaporization" units="J/kmol">
  <eqno value="106" />
  <A value="5.9697E+07" />
  <B value="0.73134" />
  <C value="0.033175" />
  <D value="-0.91459" />
  <E value="0.58962" />
  <Tmin units="K" value="158.2" />
  <Tmax units="K" value="545.58" />
  </HeatOfVaporization>
<SolidHeatCapacityCp name="Solid heat capacity" units="J/kmol/K">
  <eqno value="1" />
  <A value="223200" />
  <Tmin units="K" value="0" />
  <Tmax units="K" value="567" />
  </SolidHeatCapacityCp>
<LiquidHeatCapacityCp name="Liquid heat capacity" units="J/kmol/K">
  <eqno value="16" />
  <A value="11076" />
  <B value="-131.1" />
  <C value="12.479" />
  <D value="0.0013888" />
  <E value="-7.3844E-07" />
  <Tmin units="K" value="173.57" />
  <Tmax units="K" value="388.8" />
  </LiquidHeatCapacityCp>
<IdealGasHeatCapacityCp name="Ideal gas heat capacity" units="J/kmol/K">
  <eqno value="16" />
  <A value="86476" />
  <B value="-441" />
  <C value="12.894" />
  <D value="0.00051253" />
  <E value="-1.9205E-07" />
  <Tmin units="K" value="200" />
  <Tmax units="K" value="1500" />
  </IdealGasHeatCapacityCp>
<SecondVirialCoefficient name="Second virial coefficient" units="m3/kmol">
  <eqno value="104" />
  <A value="0.2727" />
  <B value="-363.94" />
  <C value="-51.79" />
  <D value="-4127.4" />
  <E value="2402.8" />
  <Tmin units="K" value="283.5" />
  <Tmax units="K" value="1813.5" />
  </SecondVirialCoefficient>
<LiquidViscosity name="Liquid viscosity" units="Pa.s">
  <eqno value="101" />
  <A value="-10.931" />
  <B value="1059.8" />
  <C value="-0.066598" />
  <D value="1.3283E-07" />
  <E value="2" />
  <Tmin units="K" value="158.2" />
  <Tmax units="K" value="400" />
  </LiquidViscosity>
<VaporViscosity name="Vapour viscosity" units="Pa.s">
  <eqno value="102" />
  <A value="5.6587E-07" />
  <B value="0.52506" />
  <C value="255.1" />
  <D value="-76.481" />
  <Tmin units="K" value="388.8" />
  <Tmax units="K" value="1000" />
  </VaporViscosity>
<LiquidThermalConductivity name="Liquid thermal conductivity" units="W/m/K">
  <eqno value="16" />
  <A value="-0.069311" />
  <B value="4.0311" />
  <C value="-1.5221" />
  <D value="-0.00039448" />
  <E value="-0.0000012799" />
  <Tmin units="K" value="158.2" />
  <Tmax units="K" value="388.8" />
  </LiquidThermalConductivity>
<VaporThermalConductivity name="Vapour thermal conductivity" units="W/m/K">
  <eqno value="102" />
  <A value="0.000026967" />
  <B value="1.1845" />
  <C value="-133.92" />
  <D value="140280" />
  <Tmin units="K" value="158.2" />
  <Tmax units="K" value="1000" />
  </VaporThermalConductivity>
<SurfaceTension name="Surface tension" units="N/m">
  <eqno value="16" />
  <A value="-0.013529" />
  <B value="15.88" />
  <C value="-2.9699" />
  <D value="-0.00045495" />
  <E value="-0.0000035111" />
  <Tmin units="K" value="158.2" />
  <Tmax units="K" value="545.58" />
  </SurfaceTension>
<RPPHeatCapacityCp name="Ideal gas heat capacity (RPP)" units="J/kmol/K">
  <eqno value="100" />
  <A value="-7258.5" />
  <B value="791.48" />
  <C value="-0.44225" />
  <D value="0.000098111" />
  <E value="0" />
  <Tmin units="K" value="200" />
  <Tmax units="K" value="1000" />
  </RPPHeatCapacityCp>
<RelativeStaticPermittivity name="Relative static permittivity" units="_">
  <eqno value="120" />
  <A value="-1.404923" />
  <B value="-950" />
  <C value="-5.7" />
  <Tmin units="K" value="274.15" />
  <Tmax units="K" value="444.15" />
  </RelativeStaticPermittivity>
<AntoineVaporPressure name="Antoine" units="Pa">
  <eqno value="10" />
  <A value="20.899" />
  <B value="3165.8" />
  <C value="-51.044" />
  <Tmin units="K" value="343.26" />
  <Tmax units="K" value="503.21" />
  </AntoineVaporPressure>
<LiquidViscosityRPS name="Liquid viscosity (RPS)" units="Pa.s">
  <eqno value="12" />
  <A value="-2.6297" />
  <B value="-0.016398" />
  <Tmin units="K" value="158.2" />
  <Tmax units="K" value="388.8" />
  </LiquidViscosityRPS>
<COSTALDVolume name="COSTLD characteristic volume (V*)" units="m3/kmol" value="0.486848" />
<DiameterLJ name="Lennard Jones diameter" units="m" value="7.378964E-10" />
<EnergyLJ name="Lennard Jones energy" units="K" value="266.623" />
<RacketParameter name="Rackett parameter" units="_" value="0.254" />
<FullerVolume name="Fuller et al. diffusion volume" units="_" value="168.78" />
<MatthiasCopemanC2 name="Mathias-Copeman C2" units="_" value="0" />
<Parachor name="Parachor" units="kg0.25.m3/s0.5/kmol" value="0.0599464" />
<SpecificGravity name="Specific gravity" units="_" value="0.723932" />
<Charge name="Charge" units="_" value="0" />
<CostaldAcentricFactor name="SRK acentric factor" units="_" value="0.331" />
<WilsonVolume name="Wilson volume" units="m3/kmol" value="0.15972" />
<UniquacR name="UNIQUAC r" units="_" value="5.847" />
<UniquacQ name="UNIQUAC q" units="_" value="4.928" />
<ApiSrkS2 name="API-SRK s2" units="_" value="-0.002499" />
<MatthiasCopemanC3 name="Mathias-Copeman C3" units="_" value="0" />
<ChaoSeaderAcentricFactor name="Chao-Seader acentric factor" units="_" value="0.331" />
<ChaoSeaderSolubilityParameter name="Chao-Seader solubility parameter" units="J0.5/m1.5" value="15140" />
<ChaoSeaderLiquidVolume name="Chao-Seader liquid volume" units="m3/kmol" value="0.15972" />
<UnifacVLE name="UNIFAC">
  <group id="1" value="4" />
  <group id="2" value="2" />
  <group id="3" value="2" />
  </UnifacVLE>
<UnifacLLE name="UNIFAC-LLE">
  <group id="1" value="4" />
  <group id="2" value="2" />
  <group id="3" value="2" />
  </UnifacLLE>
<Asog name="ASOG">
  <group id="1" value="4" />
  <group id="2" value="2" />
  <group id="3" value="2" />
  </Asog>
<GCmethod name="PPR78">
  <group id="1" value="4" />
  <group id="2" value="2" />
  <group id="3" value="2" />
  </GCmethod>
<Umr name="UMR">
  <group id="1" value="4" />
  <group id="2" value="2" />
  <group id="3" value="2" />
  </Umr>
<ModifiedUnifac name="Modified UNIFAC">
  <group id="1" value="4" />
  <group id="2" value="2" />
  <group id="3" value="2" />
  </ModifiedUnifac>
<CAS name="CAS number" value="609-26-7" />
<Smiles name="SMILES" value="CC(C)C(CC)CC" />
</compound>

