<compound>
<LibraryIndex name="Index" value="724" />
<CompoundID name="Name" value="2-methylindene" />
<StructureFormula name="Structure" value="CH3(C9H7)" />
<Family name="Family" value="23" />
<CriticalTemperature name="Critical temperature" units="K" value="711" />
<CriticalPressure name="Critical pressure" units="Pa" value="3460000" />
<CriticalVolume name="Critical volume" units="m3/kmol" value="0.436" />
<CriticalCompressibility name="Critical compressibility factor" units="_" value="0.255" />
<NormalBoilingPointTemperature name="Normal boiling point" units="K" value="479.45" />
<NormalMeltingPointTemperature name="Melting point" units="K" value="353.15" />
<TriplePointTemperature name="Triple point temperature" units="K" value="353.15" />
<TriplePointPressure name="Triple point pressure" units="Pa" value="3020.69" />
<MolecularWeight name="Molecular weight" units="kg/kmol" value="130.1864" />
<LiquidVolumeAtNormalBoilingPoint name="Liquid molar volume at normal boiling point" units="m3/kmol" value="0.13407" />
<AcentricityFactor name="Acentric factor" units="_" value="0.350814" />
<RadiusOfGyration name="Radius of gyration" units="m" value="4.21E-10" />
<SolubilityParameter name="Solubility parameter" units="J0.5/m1.5" value="19650" />
<DipoleMoment name="Dipole moment" units="Coulomb.m" value="0" />
<VanDerWaalsVolume name="Van der Waals volume" units="m3/kmol" value="0.07744" />
<VanDerWaalsArea name="Van der Waals area" units="m2/kmol" value="8.88E+08" />
<HeatOfFormation name="IG heat of formation" units="J/kmol" value="1.15E+08" />
<GibbsEnergyOfFormation name="IG Gibbs energy of formation" units="J/kmol" value="2.19E+08" />
<AbsEntropy name="IG absolute entropy" units="J/kmol/K" value="361000" />
<HeatOfFusionAtMeltingPoint name="Heat of fusion at melting point" units="J/kmol" value="0" />
<HeatOfCombustion name="Standard net heat of combustion LHV" units="J/kmol" value="-5.21E+09" />
<SolidDensity name="Solid density" units="kmol/m3">
  <eqno value="2" />
  <A value="8.8568" />
  <B value="-0.0013205" />
  <Tmin units="K" value="0" />
  <Tmax units="K" value="353.15" />
  </SolidDensity>
<LiquidDensity name="Liquid density" units="kmol/m3">
  <eqno value="105" />
  <A value="0.58652" />
  <B value="0.25339" />
  <C value="711" />
  <D value="0.28941" />
  <Tmin units="K" value="280" />
  <Tmax units="K" value="711" />
  </LiquidDensity>
<VaporPressure name="Vapour pressure" units="Pa">
  <eqno value="101" />
  <A value="92.273" />
  <B value="-9299.2" />
  <C value="-10.097" />
  <D value="0.0000042786" />
  <E value="2" />
  <Tmin units="K" value="280" />
  <Tmax units="K" value="711" />
  </VaporPressure>
<HeatOfVaporization name="Heat of vaporization" units="J/kmol">
  <eqno value="106" />
  <A value="7.303067E+07" />
  <B value="0.433923" />
  <C value="0.764504" />
  <D value="-1.615634" />
  <E value="0.843055" />
  <Tmin units="K" value="280" />
  <Tmax units="K" value="711" />
  </HeatOfVaporization>
<SolidHeatCapacityCp name="Solid heat capacity" units="J/kmol/K">
  <eqno value="100" />
  <A value="-3419.9" />
  <B value="1162.6" />
  <C value="-5.6175" />
  <D value="0.02291" />
  <E value="-0.000035065" />
  <Tmin units="K" value="50" />
  <Tmax units="K" value="293.15" />
  </SolidHeatCapacityCp>
<LiquidHeatCapacityCp name="Liquid heat capacity" units="J/kmol/K">
  <eqno value="16" />
  <A value="156160" />
  <B value="-200.07" />
  <C value="10.512" />
  <D value="0.0025015" />
  <E value="-0.0000010635" />
  <Tmin units="K" value="280" />
  <Tmax units="K" value="479.45" />
  </LiquidHeatCapacityCp>
<IdealGasHeatCapacityCp name="Ideal gas heat capacity" units="J/kmol/K">
  <eqno value="16" />
  <A value="-154380" />
  <B value="-193.88" />
  <C value="13.203" />
  <D value="0.00019348" />
  <E value="-5.2535E-08" />
  <Tmin units="K" value="273" />
  <Tmax units="K" value="1200" />
  </IdealGasHeatCapacityCp>
<SecondVirialCoefficient name="Second virial coefficient" units="m3/kmol">
  <eqno value="104" />
  <A value="0.29598" />
  <B value="-426.37" />
  <C value="-103.51" />
  <D value="-35570" />
  <E value="-7294.6" />
  <Tmin units="K" value="355.5" />
  <Tmax units="K" value="1877" />
  </SecondVirialCoefficient>
<VaporViscosity name="Vapour viscosity" units="Pa.s">
  <eqno value="102" />
  <A value="9.6835E-07" />
  <B value="0.47111" />
  <C value="397.83" />
  <D value="9327.5" />
  <Tmin units="K" value="280" />
  <Tmax units="K" value="1000" />
  </VaporViscosity>
<LiquidThermalConductivity name="Liquid thermal conductivity" units="W/m/K">
  <eqno value="16" />
  <A value="0.057046" />
  <B value="-181.52" />
  <C value="-0.63312" />
  <D value="-0.0038758" />
  <E value="-8.2839E-07" />
  <Tmin units="K" value="280" />
  <Tmax units="K" value="479.45" />
  </LiquidThermalConductivity>
<VaporThermalConductivity name="Vapour thermal conductivity" units="W/m/K">
  <eqno value="102" />
  <A value="0.00009568" />
  <B value="1.0268" />
  <C value="701.49" />
  <D value="-31051" />
  <Tmin units="K" value="353.15" />
  <Tmax units="K" value="1000" />
  </VaporThermalConductivity>
<SurfaceTension name="Surface tension" units="N/m">
  <eqno value="16" />
  <A value="-0.046165" />
  <B value="-77.721" />
  <C value="-1.5311" />
  <D value="-0.0027248" />
  <E value="9.8161E-07" />
  <Tmin units="K" value="280" />
  <Tmax units="K" value="711" />
  </SurfaceTension>
<RPPHeatCapacityCp name="Ideal gas heat capacity (RPP)" units="J/kmol/K">
  <eqno value="4" />
  <A value="-89608" />
  <B value="1020.3" />
  <C value="-0.836" />
  <D value="0.00026368" />
  <Tmin units="K" value="300" />
  <Tmax units="K" value="1200" />
  </RPPHeatCapacityCp>
<AntoineVaporPressure name="Antoine" units="Pa">
  <eqno value="10" />
  <A value="21.171" />
  <B value="3944.4" />
  <C value="-70.171" />
  <Tmin units="K" value="438.79" />
  <Tmax units="K" value="620.26" />
  </AntoineVaporPressure>
<COSTALDVolume name="COSTLD characteristic volume (V*)" units="m3/kmol" value="0.419809" />
<DiameterLJ name="Lennard Jones diameter" units="m" value="7.292766E-10" />
<EnergyLJ name="Lennard Jones energy" units="K" value="339.0997" />
<RacketParameter name="Rackett parameter" units="_" value="0.259776" />
<FullerVolume name="Fuller et al. diffusion volume" units="_" value="145.5" />
<Parachor name="Parachor" units="kg0.25.m3/s0.5/kmol" value="0.0578" />
<SpecificGravity name="Specific gravity" units="_" value="0.97849" />
<Charge name="Charge" units="_" value="0" />
<CostaldAcentricFactor name="SRK acentric factor" units="_" value="0.32769" />
<WilsonVolume name="Wilson volume" units="m3/kmol" value="0.133656" />
<UniquacR name="UNIQUAC r" units="_" value="5.104812" />
<UniquacQ name="UNIQUAC q" units="_" value="3.552" />
<ChaoSeaderAcentricFactor name="Chao-Seader acentric factor" units="_" value="0.32769" />
<ChaoSeaderSolubilityParameter name="Chao-Seader solubility parameter" units="J0.5/m1.5" value="17790.3" />
<ChaoSeaderLiquidVolume name="Chao-Seader liquid volume" units="m3/kmol" value="0.133656" />
<UnifacVLE name="UNIFAC">
  <group id="1" value="1" />
  <group id="8" value="1" />
  <group id="10" value="4" />
  <group id="11" value="1" />
  <group id="13" value="1" />
  </UnifacVLE>
<UnifacLLE name="UNIFAC-LLE">
  <group id="1" value="1" />
  <group id="7" value="1" />
  <group id="9" value="4" />
  <group id="10" value="1" />
  <group id="12" value="1" />
  </UnifacLLE>
<Asog name="ASOG">
  <group id="1" value="1" />
  <group id="8" value="1" />
  <group id="10" value="4" />
  <group id="11" value="2" />
  <group id="13" value="1" />
  </Asog>
<GCmethod name="PPR78">
  <group id="1" value="1" />
  <group id="7" value="4" />
  <group id="9" value="2" />
  <group id="10" value="1" />
  <group id="18" value="1" />
  <group id="19" value="1" />
  </GCmethod>
<Umr name="UMR">
  <group id="1" value="1" />
  <group id="8" value="1" />
  <group id="10" value="4" />
  <group id="11" value="1" />
  <group id="13" value="1" />
  </Umr>
<ModifiedUnifac name="Modified UNIFAC">
  <group id="1" value="1" />
  <group id="8" value="1" />
  <group id="9" value="4" />
  <group id="10" value="1" />
  <group id="12" value="1" />
  </ModifiedUnifac>
<CAS name="CAS number" value="2177-47-1" />
<Smiles name="SMILES" value="C1=CC=C2C(=C1)C=C(C2)C" />
</compound>

