<compound>
<LibraryIndex name="Index" value="37" />
<CompoundID name="Name" value="3,4-dimethylhexane" />
<StructureFormula name="Structure" value="CH3CH2CH(CH3)CH(CH3)CH2CH3" />
<Family name="Family" value="4" />
<CriticalTemperature name="Critical temperature" units="K" value="568.8" />
<CriticalPressure name="Critical pressure" units="Pa" value="2690000" />
<CriticalVolume name="Critical volume" units="m3/kmol" value="0.4588" />
<CriticalCompressibility name="Critical compressibility factor" units="_" value="0.265" />
<NormalBoilingPointTemperature name="Normal boiling point" units="K" value="390.88" />
<MolecularWeight name="Molecular weight" units="kg/kmol" value="114.2285" />
<LiquidVolumeAtNormalBoilingPoint name="Liquid molar volume at normal boiling point" units="m3/kmol" value="0.15973" />
<AcentricityFactor name="Acentric factor" units="_" value="0.338" />
<RadiusOfGyration name="Radius of gyration" units="m" value="4.23E-10" />
<SolubilityParameter name="Solubility parameter" units="J0.5/m1.5" value="15140" />
<DipoleMoment name="Dipole moment" units="Coulomb.m" value="0" />
<VanDerWaalsVolume name="Van der Waals volume" units="m3/kmol" value="0.0886999" />
<VanDerWaalsArea name="Van der Waals area" units="m2/kmol" value="1.232E+09" />
<HeatOfFormation name="IG heat of formation" units="J/kmol" value="-2.13007E+08" />
<GibbsEnergyOfFormation name="IG Gibbs energy of formation" units="J/kmol" value="1.674E+07" />
<AbsEntropy name="IG absolute entropy" units="J/kmol/K" value="451580" />
<HeatOfFusionAtMeltingPoint name="Heat of fusion at melting point" units="J/kmol" value="0" />
<MatthiasCopemanC1 name="Mathias-Copeman C1" units="_" value="1.0404" />
<HeatOfCombustion name="Standard net heat of combustion LHV" units="J/kmol" value="-5.07251E+09" />
<SolidDensity name="Solid density" units="kmol/m3">
  <eqno value="2" />
  <A value="7.54" />
  <B value="-6.8305E-18" />
  <C value="0" />
  <D value="0" />
  <E value="0" />
  <Tmin units="K" value="0" />
  <Tmax units="K" value="9.5" />
  </SolidDensity>
<LiquidDensity name="Liquid density" units="kmol/m3">
  <eqno value="105" />
  <A value="0.45439" />
  <B value="0.24011" />
  <C value="568.8" />
  <D value="0.23618" />
  <Tmin units="K" value="272.04" />
  <Tmax units="K" value="568.78" />
  </LiquidDensity>
<VaporPressure name="Vapour pressure" units="Pa">
  <eqno value="101" />
  <A value="93.68625" />
  <B value="-7521.509" />
  <C value="-10.73445" />
  <D value="7.52569E-06" />
  <E value="2" />
  <Tmin units="K" value="272.04" />
  <Tmax units="K" value="568.8" />
  </VaporPressure>
<HeatOfVaporization name="Heat of vaporization" units="J/kmol">
  <eqno value="106" />
  <A value="5.4702E+07" />
  <B value="0.45918" />
  <C value="0.1856" />
  <D value="-0.51513" />
  <E value="0.26338" />
  <Tmin units="K" value="272.04" />
  <Tmax units="K" value="553.18" />
  </HeatOfVaporization>
<SolidHeatCapacityCp name="Solid heat capacity" units="J/kmol/K">
  <eqno value="1" />
  <A value="223200" />
  <Tmin units="K" value="0" />
  <Tmax units="K" value="568.8" />
  </SolidHeatCapacityCp>
<LiquidHeatCapacityCp name="Liquid heat capacity" units="J/kmol/K">
  <eqno value="16" />
  <A value="-327870" />
  <B value="47.226" />
  <C value="12.229" />
  <D value="0.0041484" />
  <E value="-0.000004128" />
  <Tmin units="K" value="138.78" />
  <Tmax units="K" value="390.88" />
  </LiquidHeatCapacityCp>
<IdealGasHeatCapacityCp name="Ideal gas heat capacity" units="J/kmol/K">
  <eqno value="16" />
  <A value="34075" />
  <B value="-331.34" />
  <C value="12.881" />
  <D value="0.00054108" />
  <E value="-1.7153E-07" />
  <Tmin units="K" value="200" />
  <Tmax units="K" value="1500" />
  </IdealGasHeatCapacityCp>
<SecondVirialCoefficient name="Second virial coefficient" units="m3/kmol">
  <eqno value="104" />
  <A value="0.27419" />
  <B value="-368.34" />
  <C value="-50.667" />
  <D value="-11826" />
  <E value="23331" />
  <Tmin units="K" value="284.4" />
  <Tmax units="K" value="2000" />
  </SecondVirialCoefficient>
<LiquidViscosity name="Liquid viscosity" units="Pa.s">
  <eqno value="101" />
  <A value="-41.742" />
  <B value="2125.1" />
  <C value="4.8163" />
  <D value="-0.0000056466" />
  <E value="2" />
  <Tmin units="K" value="272.04" />
  <Tmax units="K" value="400" />
  </LiquidViscosity>
<VaporViscosity name="Vapour viscosity" units="Pa.s">
  <eqno value="102" />
  <A value="6.4152E-07" />
  <B value="0.51789" />
  <C value="310.46" />
  <D value="157.69" />
  <Tmin units="K" value="390.88" />
  <Tmax units="K" value="1000" />
  </VaporViscosity>
<LiquidThermalConductivity name="Liquid thermal conductivity" units="W/m/K">
  <eqno value="16" />
  <A value="-0.0004002" />
  <B value="-144.47" />
  <C value="-0.57247" />
  <D value="-0.0042745" />
  <E value="0.0000010836" />
  <Tmin units="K" value="272.04" />
  <Tmax units="K" value="390.88" />
  </LiquidThermalConductivity>
<VaporThermalConductivity name="Vapour thermal conductivity" units="W/m/K">
  <eqno value="102" />
  <A value="0.000020807" />
  <B value="1.2133" />
  <C value="-200.76" />
  <D value="152640" />
  <Tmin units="K" value="152" />
  <Tmax units="K" value="1000" />
  </VaporThermalConductivity>
<SurfaceTension name="Surface tension" units="N/m">
  <eqno value="16" />
  <A value="-0.064052" />
  <B value="-52.814" />
  <C value="-1.681" />
  <D value="-0.0023574" />
  <E value="0.0000011157" />
  <Tmin units="K" value="272.04" />
  <Tmax units="K" value="553.18" />
  </SurfaceTension>
<RPPHeatCapacityCp name="Ideal gas heat capacity (RPP)" units="J/kmol/K">
  <eqno value="100" />
  <A value="-51117" />
  <B value="968.82" />
  <C value="-0.69434" />
  <D value="0.00024619" />
  <E value="-2.8602E-08" />
  <Tmin units="K" value="200" />
  <Tmax units="K" value="1000" />
  </RPPHeatCapacityCp>
<RelativeStaticPermittivity name="Relative static permittivity" units="_">
  <eqno value="120" />
  <A value="-1.796538" />
  <B value="-1200" />
  <C value="-7.2" />
  <Tmin units="K" value="274.15" />
  <Tmax units="K" value="444.15" />
  </RelativeStaticPermittivity>
<AntoineVaporPressure name="Antoine" units="Pa">
  <eqno value="10" />
  <A value="20.996" />
  <B value="3219" />
  <C value="-50.972" />
  <Tmin units="K" value="272.04" />
  <Tmax units="K" value="568.8" />
  </AntoineVaporPressure>
<LiquidViscosityRPS name="Liquid viscosity (RPS)" units="Pa.s">
  <eqno value="12" />
  <A value="-4.9827" />
  <B value="-0.0089632" />
  <Tmin units="K" value="272.04" />
  <Tmax units="K" value="390.88" />
  </LiquidViscosityRPS>
<COSTALDVolume name="COSTLD characteristic volume (V*)" units="m3/kmol" value="0.486848" />
<DiameterLJ name="Lennard Jones diameter" units="m" value="7.083117E-10" />
<EnergyLJ name="Lennard Jones energy" units="K" value="311.5716" />
<RacketParameter name="Rackett parameter" units="_" value="0.265" />
<FullerVolume name="Fuller et al. diffusion volume" units="_" value="168.78" />
<MatthiasCopemanC2 name="Mathias-Copeman C2" units="_" value="-0.44525" />
<Parachor name="Parachor" units="kg0.25.m3/s0.5/kmol" value="0.0603305" />
<SpecificGravity name="Specific gravity" units="_" value="0.723382" />
<Charge name="Charge" units="_" value="0" />
<CostaldAcentricFactor name="SRK acentric factor" units="_" value="0.338" />
<WilsonVolume name="Wilson volume" units="m3/kmol" value="0.15973" />
<UniquacR name="UNIQUAC r" units="_" value="5.847" />
<UniquacQ name="UNIQUAC q" units="_" value="4.928" />
<ApiSrkS2 name="API-SRK s2" units="_" value="-0.001744" />
<MatthiasCopemanC3 name="Mathias-Copeman C3" units="_" value="0.91017" />
<ChaoSeaderAcentricFactor name="Chao-Seader acentric factor" units="_" value="0.338" />
<ChaoSeaderSolubilityParameter name="Chao-Seader solubility parameter" units="J0.5/m1.5" value="15140" />
<ChaoSeaderLiquidVolume name="Chao-Seader liquid volume" units="m3/kmol" value="0.15973" />
<UnifacVLE name="UNIFAC">
  <group id="1" value="4" />
  <group id="2" value="2" />
  <group id="3" value="2" />
  </UnifacVLE>
<UnifacLLE name="UNIFAC-LLE">
  <group id="1" value="4" />
  <group id="2" value="2" />
  <group id="3" value="2" />
  </UnifacLLE>
<Asog name="ASOG">
  <group id="1" value="4" />
  <group id="2" value="2" />
  <group id="3" value="2" />
  </Asog>
<GCmethod name="PPR78">
  <group id="1" value="4" />
  <group id="2" value="2" />
  <group id="3" value="2" />
  </GCmethod>
<Umr name="UMR">
  <group id="1" value="4" />
  <group id="2" value="2" />
  <group id="3" value="2" />
  </Umr>
<ModifiedUnifac name="Modified UNIFAC">
  <group id="1" value="4" />
  <group id="2" value="2" />
  <group id="3" value="2" />
  </ModifiedUnifac>
<CAS name="CAS number" value="583-48-2" />
<Smiles name="SMILES" value="CCC(C)C(C)CC" />
</compound>

