<compound>
<LibraryIndex name="Index" value="1057" />
<CompoundID name="Name" value="3-heptanone" />
<StructureFormula name="Structure" value="CH3(CH2)3COC2H5" />
<Family name="Family" value="26" />
<CriticalTemperature name="Critical temperature" units="K" value="605" />
<CriticalPressure name="Critical pressure" units="Pa" value="3010000" />
<CriticalVolume name="Critical volume" units="m3/kmol" value="0.421" />
<CriticalCompressibility name="Critical compressibility factor" units="_" value="0.251" />
<NormalBoilingPointTemperature name="Normal boiling point" units="K" value="420.55" />
<NormalMeltingPointTemperature name="Melting point" units="K" value="234.15" />
<TriplePointTemperature name="Triple point temperature" units="K" value="234.15" />
<TriplePointPressure name="Triple point pressure" units="Pa" value="2.29921" />
<MolecularWeight name="Molecular weight" units="kg/kmol" value="114.1855" />
<LiquidVolumeAtNormalBoilingPoint name="Liquid molar volume at normal boiling point" units="m3/kmol" value="0.140257" />
<AcentricityFactor name="Acentric factor" units="_" value="0.407565" />
<RadiusOfGyration name="Radius of gyration" units="m" value="4.539E-10" />
<SolubilityParameter name="Solubility parameter" units="J0.5/m1.5" value="17940" />
<DipoleMoment name="Dipole moment" units="Coulomb.m" value="9.37E-30" />
<VanDerWaalsVolume name="Van der Waals volume" units="m3/kmol" value="0.07996" />
<VanDerWaalsArea name="Van der Waals area" units="m2/kmol" value="1.124E+09" />
<HeatOfFormation name="IG heat of formation" units="J/kmol" value="-3.01E+08" />
<GibbsEnergyOfFormation name="IG Gibbs energy of formation" units="J/kmol" value="-1.196E+08" />
<AbsEntropy name="IG absolute entropy" units="J/kmol/K" value="448500" />
<HeatOfFusionAtMeltingPoint name="Heat of fusion at melting point" units="J/kmol" value="1.81E+07" />
<MatthiasCopemanC1 name="Mathias-Copeman C1" units="_" value="1.13085" />
<HeatOfCombustion name="Standard net heat of combustion LHV" units="J/kmol" value="-4.098E+09" />
<SolidDensity name="Solid density" units="kmol/m3">
  <eqno value="100" />
  <A value="9.6961" />
  <B value="-0.0051762" />
  <C value="0" />
  <D value="0" />
  <E value="0" />
  <Tmin units="K" value="93.66" />
  <Tmax units="K" value="234.15" />
  </SolidDensity>
<LiquidDensity name="Liquid density" units="kmol/m3">
  <eqno value="105" />
  <A value="0.65544" />
  <B value="0.26958" />
  <C value="605" />
  <D value="0.29059" />
  <Tmin units="K" value="234.15" />
  <Tmax units="K" value="587" />
  </LiquidDensity>
<VaporPressure name="Vapour pressure" units="Pa">
  <eqno value="101" />
  <A value="59.93996" />
  <B value="-7156.968" />
  <C value="-5.201278" />
  <D value="1.288938E-07" />
  <E value="2" />
  <Tmin units="K" value="234.15" />
  <Tmax units="K" value="606.6" />
  </VaporPressure>
<HeatOfVaporization name="Heat of vaporization" units="J/kmol">
  <eqno value="106" />
  <A value="6.726896E+07" />
  <B value="0.830475" />
  <C value="-1.256385" />
  <D value="1.592723" />
  <E value="-0.756362" />
  <Tmin units="K" value="234.15" />
  <Tmax units="K" value="587" />
  </HeatOfVaporization>
<SolidHeatCapacityCp name="Solid heat capacity" units="J/kmol/K">
  <eqno value="102" />
  <A value="2320" />
  <B value="0.79267" />
  <C value="0" />
  <D value="0" />
  <Tmin units="K" value="50" />
  <Tmax units="K" value="234.15" />
  </SolidHeatCapacityCp>
<LiquidHeatCapacityCp name="Liquid heat capacity" units="J/kmol/K">
  <eqno value="16" />
  <A value="215140" />
  <B value="447.78" />
  <C value="3.9106" />
  <D value="0.020539" />
  <E value="-0.000013511" />
  <Tmin units="K" value="234.15" />
  <Tmax units="K" value="480" />
  </LiquidHeatCapacityCp>
<IdealGasHeatCapacityCp name="Ideal gas heat capacity" units="J/kmol/K">
  <eqno value="16" />
  <A value="122140" />
  <B value="-668.77" />
  <C value="13.117" />
  <D value="-0.0000064986" />
  <E value="-3.4969E-08" />
  <Tmin units="K" value="200" />
  <Tmax units="K" value="1500" />
  </IdealGasHeatCapacityCp>
<SecondVirialCoefficient name="Second virial coefficient" units="m3/kmol">
  <eqno value="104" />
  <A value="0.29056" />
  <B value="-339.49" />
  <C value="-76.497" />
  <D value="-41160" />
  <E value="60961" />
  <Tmin units="K" value="303.3" />
  <Tmax units="K" value="1500" />
  </SecondVirialCoefficient>
<LiquidViscosity name="Liquid viscosity" units="Pa.s">
  <eqno value="101" />
  <A value="-11.982" />
  <B value="1284.2" />
  <C value="0.095491" />
  <D value="-8.1894E-07" />
  <E value="2" />
  <Tmin units="K" value="234.15" />
  <Tmax units="K" value="505" />
  </LiquidViscosity>
<VaporViscosity name="Vapour viscosity" units="Pa.s">
  <eqno value="102" />
  <A value="1.4757E-07" />
  <B value="0.71999" />
  <C value="184.44" />
  <D value="-6805" />
  <Tmin units="K" value="234.15" />
  <Tmax units="K" value="1000" />
  </VaporViscosity>
<LiquidThermalConductivity name="Liquid thermal conductivity" units="W/m/K">
  <eqno value="16" />
  <A value="-0.025728" />
  <B value="-61.893" />
  <C value="-0.97852" />
  <D value="-0.0021604" />
  <E value="1.2683E-07" />
  <Tmin units="K" value="234.15" />
  <Tmax units="K" value="553.15" />
  </LiquidThermalConductivity>
<VaporThermalConductivity name="Vapour thermal conductivity" units="W/m/K">
  <eqno value="102" />
  <A value="1201.8" />
  <B value="1.0398" />
  <C value="1.4113E+10" />
  <D value="-9.6162E+10" />
  <Tmin units="K" value="234.15" />
  <Tmax units="K" value="1000" />
  </VaporThermalConductivity>
<SurfaceTension name="Surface tension" units="N/m">
  <eqno value="16" />
  <A value="-0.011218" />
  <B value="48.92" />
  <C value="-3.2612" />
  <D value="0.00080836" />
  <E value="-0.0000049917" />
  <Tmin units="K" value="234.15" />
  <Tmax units="K" value="587" />
  </SurfaceTension>
<RPPHeatCapacityCp name="Ideal gas heat capacity (RPP)" units="J/kmol/K">
  <eqno value="4" />
  <A value="35513" />
  <B value="545.55" />
  <C value="-0.2495" />
  <D value="0.000035433" />
  <Tmin units="K" value="200" />
  <Tmax units="K" value="1500" />
  </RPPHeatCapacityCp>
<AntoineVaporPressure name="Antoine" units="Pa">
  <eqno value="10" />
  <A value="21.049" />
  <B value="3293.7" />
  <C value="-74.523" />
  <Tmin units="K" value="363.15" />
  <Tmax units="K" value="540" />
  </AntoineVaporPressure>
<LiquidViscosityRPS name="Liquid viscosity (RPS)" units="Pa.s">
  <eqno value="12" />
  <A value="-3.2585" />
  <B value="-0.012873" />
  <Tmin units="K" value="234.15" />
  <Tmax units="K" value="421.15" />
  </LiquidViscosityRPS>
<COSTALDVolume name="COSTLD characteristic volume (V*)" units="m3/kmol" value="0.434587" />
<DiameterLJ name="Lennard Jones diameter" units="m" value="7.34622E-10" />
<EnergyLJ name="Lennard Jones energy" units="K" value="272.5799" />
<RacketParameter name="Rackett parameter" units="_" value="0.251" />
<FullerVolume name="Fuller et al. diffusion volume" units="_" value="149.75" />
<MatthiasCopemanC2 name="Mathias-Copeman C2" units="_" value="0" />
<Parachor name="Parachor" units="kg0.25.m3/s0.5/kmol" value="0.055992" />
<SpecificGravity name="Specific gravity" units="_" value="0.823035" />
<Charge name="Charge" units="_" value="0" />
<CostaldAcentricFactor name="SRK acentric factor" units="_" value="0.407565" />
<WilsonVolume name="Wilson volume" units="m3/kmol" value="0.140257" />
<UniquacR name="UNIQUAC r" units="_" value="5.2711" />
<UniquacQ name="UNIQUAC q" units="_" value="4.496" />
<MatthiasCopemanC3 name="Mathias-Copeman C3" units="_" value="0" />
<ChaoSeaderAcentricFactor name="Chao-Seader acentric factor" units="_" value="0.407565" />
<ChaoSeaderSolubilityParameter name="Chao-Seader solubility parameter" units="J0.5/m1.5" value="17940" />
<ChaoSeaderLiquidVolume name="Chao-Seader liquid volume" units="m3/kmol" value="0.140257" />
<UnifacVLE name="UNIFAC">
  <group id="1" value="2" />
  <group id="2" value="3" />
  <group id="20" value="1" />
  </UnifacVLE>
<UnifacLLE name="UNIFAC-LLE">
  <group id="1" value="2" />
  <group id="2" value="3" />
  <group id="20" value="1" />
  </UnifacLLE>
<Asog name="ASOG">
  <group id="1" value="2" />
  <group id="2" value="4" />
  <group id="18" value="1" />
  </Asog>
<Umr name="UMR">
  <group id="1" value="2" />
  <group id="2" value="3" />
  <group id="20" value="1" />
  </Umr>
<ModifiedUnifac name="Modified UNIFAC">
  <group id="1" value="2" />
  <group id="2" value="3" />
  <group id="19" value="1" />
  </ModifiedUnifac>
<CAS name="CAS number" value="106-35-4" />
<Smiles name="SMILES" value="CCC(=O)CCCC" />
</compound>

