<compound>
<LibraryIndex name="Index" value="213" />
<CompoundID name="Name" value="3-methyl-1-butene" />
<StructureFormula name="Structure" value="CH2CHCH(CH3)CH3" />
<Family name="Family" value="11" />
<CriticalTemperature name="Critical temperature" units="K" value="452.7" />
<CriticalPressure name="Critical pressure" units="Pa" value="3550000" />
<CriticalVolume name="Critical volume" units="m3/kmol" value="0.3049" />
<CriticalCompressibility name="Critical compressibility factor" units="_" value="0.288" />
<NormalBoilingPointTemperature name="Normal boiling point" units="K" value="293.21" />
<NormalMeltingPointTemperature name="Melting point" units="K" value="104.66" />
<TriplePointTemperature name="Triple point temperature" units="K" value="104.66" />
<TriplePointPressure name="Triple point pressure" units="Pa" value="0.0000144678" />
<MolecularWeight name="Molecular weight" units="kg/kmol" value="70.1329" />
<LiquidVolumeAtNormalBoilingPoint name="Liquid molar volume at normal boiling point" units="m3/kmol" value="0.11277" />
<AcentricityFactor name="Acentric factor" units="_" value="0.211" />
<RadiusOfGyration name="Radius of gyration" units="m" value="3.272E-10" />
<SolubilityParameter name="Solubility parameter" units="J0.5/m1.5" value="13780" />
<DipoleMoment name="Dipole moment" units="Coulomb.m" value="1.07E-30" />
<VanDerWaalsVolume name="Van der Waals volume" units="m3/kmol" value="0.05453" />
<VanDerWaalsArea name="Van der Waals area" units="m2/kmol" value="7.75E+08" />
<HeatOfFormation name="IG heat of formation" units="J/kmol" value="-2.76E+07" />
<GibbsEnergyOfFormation name="IG Gibbs energy of formation" units="J/kmol" value="7.605E+07" />
<AbsEntropy name="IG absolute entropy" units="J/kmol/K" value="333900" />
<HeatOfFusionAtMeltingPoint name="Heat of fusion at melting point" units="J/kmol" value="5359700" />
<MatthiasCopemanC1 name="Mathias-Copeman C1" units="_" value="0.82876" />
<HeatOfCombustion name="Standard net heat of combustion LHV" units="J/kmol" value="-3.1253E+09" />
<SolidDensity name="Solid density" units="kmol/m3">
  <eqno value="2" />
  <A value="14.464" />
  <B value="-0.015739" />
  <Tmin units="K" value="41.86" />
  <Tmax units="K" value="104.66" />
  </SolidDensity>
<LiquidDensity name="Liquid density" units="kmol/m3">
  <eqno value="105" />
  <A value="0.85968" />
  <B value="0.26229" />
  <C value="452.7" />
  <D value="0.27579" />
  <Tmin units="K" value="104.66" />
  <Tmax units="K" value="434.38" />
  </LiquidDensity>
<VaporPressure name="Vapour pressure" units="Pa">
  <eqno value="101" />
  <A value="74.66163" />
  <B value="-4956.256" />
  <C value="-8.290047" />
  <D value="0.0000100425" />
  <E value="2" />
  <Tmin units="K" value="104.66" />
  <Tmax units="K" value="452.7" />
  </VaporPressure>
<HeatOfVaporization name="Heat of vaporization" units="J/kmol">
  <eqno value="106" />
  <A value="3.9174E+07" />
  <B value="0.58094" />
  <C value="0.12579" />
  <D value="-0.78785" />
  <E value="0.49354" />
  <Tmin units="K" value="104.66" />
  <Tmax units="K" value="434.38" />
  </HeatOfVaporization>
<SolidHeatCapacityCp name="Solid heat capacity" units="J/kmol/K">
  <eqno value="100" />
  <A value="-31134" />
  <B value="2580.1" />
  <C value="-35.586" />
  <D value="0.27843" />
  <E value="-0.00080931" />
  <Tmin units="K" value="29.5" />
  <Tmax units="K" value="104.71" />
  </SolidHeatCapacityCp>
<LiquidHeatCapacityCp name="Liquid heat capacity" units="J/kmol/K">
  <eqno value="16" />
  <A value="94996" />
  <B value="92.422" />
  <C value="8.4061" />
  <D value="0.009093" />
  <E value="-0.0000045826" />
  <Tmin units="K" value="103.08" />
  <Tmax units="K" value="300" />
  </LiquidHeatCapacityCp>
<IdealGasHeatCapacityCp name="Ideal gas heat capacity" units="J/kmol/K">
  <eqno value="16" />
  <A value="82557" />
  <B value="-671.08" />
  <C value="12.784" />
  <D value="-0.00012458" />
  <E value="4.234E-08" />
  <Tmin units="K" value="200" />
  <Tmax units="K" value="1500" />
  </IdealGasHeatCapacityCp>
<SecondVirialCoefficient name="Second virial coefficient" units="m3/kmol">
  <eqno value="104" />
  <A value="0.17117" />
  <B value="-168.7" />
  <C value="-14.362" />
  <D value="-474.16" />
  <E value="518.37" />
  <Tmin units="K" value="225" />
  <Tmax units="K" value="1841" />
  </SecondVirialCoefficient>
<LiquidViscosity name="Liquid viscosity" units="Pa.s">
  <eqno value="101" />
  <A value="-11.214" />
  <B value="821.55" />
  <C value="-0.010133" />
  <D value="9.4673E-08" />
  <E value="2" />
  <Tmin units="K" value="104.66" />
  <Tmax units="K" value="373" />
  </LiquidViscosity>
<VaporViscosity name="Vapour viscosity" units="Pa.s">
  <eqno value="102" />
  <A value="0.0000016555" />
  <B value="0.42535" />
  <C value="455.3" />
  <D value="876.91" />
  <Tmin units="K" value="104.66" />
  <Tmax units="K" value="1000" />
  </VaporViscosity>
<LiquidThermalConductivity name="Liquid thermal conductivity" units="W/m/K">
  <eqno value="16" />
  <A value="-0.017622" />
  <B value="5.9209" />
  <C value="-1.694" />
  <D value="-0.00045405" />
  <E value="-0.0000033564" />
  <Tmin units="K" value="104.66" />
  <Tmax units="K" value="293.2" />
  </LiquidThermalConductivity>
<VaporThermalConductivity name="Vapour thermal conductivity" units="W/m/K">
  <eqno value="102" />
  <A value="0.00014816" />
  <B value="0.97375" />
  <C value="75.281" />
  <D value="116540" />
  <Tmin units="K" value="104.66" />
  <Tmax units="K" value="1000" />
  </VaporThermalConductivity>
<SurfaceTension name="Surface tension" units="N/m">
  <eqno value="16" />
  <A value="-0.01585" />
  <B value="5.8469" />
  <C value="-2.8491" />
  <D value="-0.0010934" />
  <E value="-0.0000040903" />
  <Tmin units="K" value="104.66" />
  <Tmax units="K" value="434.38" />
  </SurfaceTension>
<RPPHeatCapacityCp name="Ideal gas heat capacity (RPP)" units="J/kmol/K">
  <eqno value="100" />
  <A value="17527" />
  <B value="348.48" />
  <C value="-0.034588" />
  <D value="-0.00016105" />
  <E value="7.932E-08" />
  <Tmin units="K" value="298" />
  <Tmax units="K" value="1000" />
  </RPPHeatCapacityCp>
<AntoineVaporPressure name="Antoine" units="Pa">
  <eqno value="10" />
  <A value="20.734" />
  <B value="2400.8" />
  <C value="-32.491" />
  <Tmin units="K" value="273.15" />
  <Tmax units="K" value="397.75" />
  </AntoineVaporPressure>
<LiquidViscosityRPS name="Liquid viscosity (RPS)" units="Pa.s">
  <eqno value="13" />
  <A value="1.3377" />
  <B value="-0.058937" />
  <C value="0.000086079" />
  <Tmin units="K" value="104.66" />
  <Tmax units="K" value="362.16" />
  </LiquidViscosityRPS>
<COSTALDVolume name="COSTLD characteristic volume (V*)" units="m3/kmol" value="0.29398" />
<DiameterLJ name="Lennard Jones diameter" units="m" value="5.593622E-10" />
<EnergyLJ name="Lennard Jones energy" units="K" value="334.6082" />
<RacketParameter name="Rackett parameter" units="_" value="0.272045" />
<FullerVolume name="Fuller et al. diffusion volume" units="_" value="102.6" />
<MatthiasCopemanC2 name="Mathias-Copeman C2" units="_" value="0" />
<Parachor name="Parachor" units="kg0.25.m3/s0.5/kmol" value="0.0389" />
<SpecificGravity name="Specific gravity" units="_" value="0.63127" />
<Charge name="Charge" units="_" value="0" />
<CostaldAcentricFactor name="SRK acentric factor" units="_" value="0.2266" />
<WilsonVolume name="Wilson volume" units="m3/kmol" value="0.111819" />
<UniquacR name="UNIQUAC r" units="_" value="3.5945" />
<UniquacQ name="UNIQUAC q" units="_" value="3.1" />
<ApiSrkS2 name="API-SRK s2" units="_" value="-0.011281" />
<MatthiasCopemanC3 name="Mathias-Copeman C3" units="_" value="0" />
<ChaoSeaderAcentricFactor name="Chao-Seader acentric factor" units="_" value="0.2285" />
<ChaoSeaderSolubilityParameter name="Chao-Seader solubility parameter" units="J0.5/m1.5" value="14010.2" />
<ChaoSeaderLiquidVolume name="Chao-Seader liquid volume" units="m3/kmol" value="0.111819" />
<UnifacVLE name="UNIFAC">
  <group id="1" value="2" />
  <group id="3" value="1" />
  <group id="5" value="1" />
  </UnifacVLE>
<UnifacLLE name="UNIFAC-LLE">
  <group id="1" value="2" />
  <group id="2" value="1" />
  <group id="8" value="1" />
  </UnifacLLE>
<Asog name="ASOG">
  <group id="1" value="2" />
  <group id="3" value="1" />
  <group id="5" value="1" />
  </Asog>
<GCmethod name="PPR78">
  <group id="1" value="2" />
  <group id="2" value="1" />
  <group id="3" value="1" />
  <group id="18" value="1" />
  </GCmethod>
<Umr name="UMR">
  <group id="1" value="2" />
  <group id="3" value="1" />
  <group id="5" value="1" />
  </Umr>
<ModifiedUnifac name="Modified UNIFAC">
  <group id="1" value="2" />
  <group id="3" value="1" />
  <group id="5" value="1" />
  </ModifiedUnifac>
<CAS name="CAS number" value="563-45-1" />
<Smiles name="SMILES" value="C=CC(C)C" />
</compound>

