<compound>
<LibraryIndex name="Index" value="13" />
<CompoundID name="Name" value="3-methylpentane" />
<StructureFormula name="Structure" value="CH3CH2CH(CH3)CH2CH3" />
<Family name="Family" value="2" />
<CriticalTemperature name="Critical temperature" units="K" value="504.4" />
<CriticalPressure name="Critical pressure" units="Pa" value="3120000" />
<CriticalVolume name="Critical volume" units="m3/kmol" value="0.3667" />
<CriticalCompressibility name="Critical compressibility factor" units="_" value="0.273" />
<NormalBoilingPointTemperature name="Normal boiling point" units="K" value="336.4" />
<NormalMeltingPointTemperature name="Melting point" units="K" value="110.251" />
<TriplePointTemperature name="Triple point temperature" units="K" value="110.25" />
<TriplePointPressure name="Triple point pressure" units="Pa" value="4.13745E-07" />
<MolecularWeight name="Molecular weight" units="kg/kmol" value="86.17536" />
<LiquidVolumeAtNormalBoilingPoint name="Liquid molar volume at normal boiling point" units="m3/kmol" value="0.13062" />
<AcentricityFactor name="Acentric factor" units="_" value="0.273" />
<RadiusOfGyration name="Radius of gyration" units="m" value="3.695E-10" />
<SolubilityParameter name="Solubility parameter" units="J0.5/m1.5" value="14680" />
<DipoleMoment name="Dipole moment" units="Coulomb.m" value="0" />
<VanDerWaalsVolume name="Van der Waals volume" units="m3/kmol" value="0.06825" />
<VanDerWaalsArea name="Van der Waals area" units="m2/kmol" value="9.63E+08" />
<HeatOfFormation name="IG heat of formation" units="J/kmol" value="-1.72E+08" />
<GibbsEnergyOfFormation name="IG Gibbs energy of formation" units="J/kmol" value="-3420000" />
<AbsEntropy name="IG absolute entropy" units="J/kmol/K" value="383000" />
<HeatOfFusionAtMeltingPoint name="Heat of fusion at melting point" units="J/kmol" value="5303200" />
<MatthiasCopemanC1 name="Mathias-Copeman C1" units="_" value="1.0567" />
<HeatOfCombustion name="Standard net heat of combustion LHV" units="J/kmol" value="-3.85137E+09" />
<SolidDensity name="Solid density" units="kmol/m3">
  <eqno value="2" />
  <A value="11.818" />
  <B value="-0.011634" />
  <Tmin units="K" value="44.1" />
  <Tmax units="K" value="110.25" />
  </SolidDensity>
<LiquidDensity name="Liquid density" units="kmol/m3">
  <eqno value="105" />
  <A value="0.64191" />
  <B value="0.2518" />
  <C value="504.61" />
  <D value="0.25114" />
  <Tmin units="K" value="110.25" />
  <Tmax units="K" value="504.6" />
  </LiquidDensity>
<VaporPressure name="Vapour pressure" units="Pa">
  <eqno value="101" />
  <A value="103.3869" />
  <B value="-6792.289" />
  <C value="-12.56583" />
  <D value="0.0000127267" />
  <E value="2" />
  <Tmin units="K" value="110.25" />
  <Tmax units="K" value="504.6" />
  </VaporPressure>
<HeatOfVaporization name="Heat of vaporization" units="J/kmol">
  <eqno value="106" />
  <A value="5.261039E+07" />
  <B value="1.021512" />
  <C value="-0.656827" />
  <D value="-0.222599" />
  <E value="0.294618" />
  <Tmin units="K" value="110.25" />
  <Tmax units="K" value="483.84" />
  </HeatOfVaporization>
<SolidHeatCapacityCp name="Solid heat capacity" units="J/kmol/K">
  <eqno value="100" />
  <A value="-16129" />
  <B value="1666.4" />
  <C value="-9.7944" />
  <D value="0.031943" />
  <E value="-0.0000041663" />
  <Tmin units="K" value="15.63" />
  <Tmax units="K" value="110.25" />
  </SolidHeatCapacityCp>
<LiquidHeatCapacityCp name="Liquid heat capacity" units="J/kmol/K">
  <eqno value="16" />
  <A value="124870" />
  <B value="37.47" />
  <C value="8.4986" />
  <D value="0.010489" />
  <E value="-0.0000074005" />
  <Tmin units="K" value="79.81" />
  <Tmax units="K" value="336.43" />
  </LiquidHeatCapacityCp>
<IdealGasHeatCapacityCp name="Ideal gas heat capacity" units="J/kmol/K">
  <eqno value="16" />
  <A value="66323" />
  <B value="-479.35" />
  <C value="12.713" />
  <D value="0.00041058" />
  <E value="-1.3725E-07" />
  <Tmin units="K" value="200" />
  <Tmax units="K" value="1500" />
  </IdealGasHeatCapacityCp>
<SecondVirialCoefficient name="Second virial coefficient" units="m3/kmol">
  <eqno value="104" />
  <A value="0.2197" />
  <B value="-311.6" />
  <C value="-21.56" />
  <D value="108.65" />
  <E value="-1264.8" />
  <Tmin units="K" value="252.2" />
  <Tmax units="K" value="1500" />
  </SecondVirialCoefficient>
<LiquidViscosity name="Liquid viscosity" units="Pa.s">
  <eqno value="101" />
  <A value="-4.4466" />
  <B value="561.39" />
  <C value="-0.97496" />
  <D value="-4.1525E-07" />
  <E value="2" />
  <Tmin units="K" value="220" />
  <Tmax units="K" value="403.52" />
  </LiquidViscosity>
<VaporViscosity name="Vapour viscosity" units="Pa.s">
  <eqno value="102" />
  <A value="0.0000014857" />
  <B value="0.42502" />
  <C value="455.77" />
  <D value="119.73" />
  <Tmin units="K" value="110.25" />
  <Tmax units="K" value="1000" />
  </VaporViscosity>
<LiquidThermalConductivity name="Liquid thermal conductivity" units="W/m/K">
  <eqno value="16" />
  <A value="0.013685" />
  <B value="32.912" />
  <C value="-2.24" />
  <D value="0.00097964" />
  <E value="-0.0000056292" />
  <Tmin units="K" value="110.25" />
  <Tmax units="K" value="402" />
  </LiquidThermalConductivity>
<VaporThermalConductivity name="Vapour thermal conductivity" units="W/m/K">
  <eqno value="102" />
  <A value="0.000050178" />
  <B value="1.1143" />
  <C value="-67.556" />
  <D value="138050" />
  <Tmin units="K" value="110.25" />
  <Tmax units="K" value="1000" />
  </VaporThermalConductivity>
<SurfaceTension name="Surface tension" units="N/m">
  <eqno value="16" />
  <A value="-0.013421" />
  <B value="7.9798" />
  <C value="-2.865" />
  <D value="-0.00092552" />
  <E value="-0.0000040501" />
  <Tmin units="K" value="110.25" />
  <Tmax units="K" value="483.84" />
  </SurfaceTension>
<RPPHeatCapacityCp name="Ideal gas heat capacity (RPP)" units="J/kmol/K">
  <eqno value="100" />
  <A value="3600.2" />
  <B value="92.648" />
  <C value="0.060696" />
  <D value="-0.00013403" />
  <E value="5.737E-08" />
  <Tmin units="K" value="200" />
  <Tmax units="K" value="1000" />
  </RPPHeatCapacityCp>
<AntoineVaporPressure name="Antoine" units="Pa">
  <eqno value="10" />
  <A value="20.831" />
  <B value="2755" />
  <C value="-40.41" />
  <Tmin units="K" value="304.91" />
  <Tmax units="K" value="442.33" />
  </AntoineVaporPressure>
<LiquidViscosityRPS name="Liquid viscosity (RPS)" units="Pa.s">
  <eqno value="13" />
  <A value="-2.2793" />
  <B value="-0.02952" />
  <C value="0.00003287" />
  <Tmin units="K" value="220" />
  <Tmax units="K" value="336.42" />
  </LiquidViscosityRPS>
<COSTALDVolume name="COSTLD characteristic volume (V*)" units="m3/kmol" value="0.36333" />
<DiameterLJ name="Lennard Jones diameter" units="m" value="6.342884E-10" />
<EnergyLJ name="Lennard Jones energy" units="K" value="307.5203" />
<RacketParameter name="Rackett parameter" units="_" value="0.2575" />
<FullerVolume name="Fuller et al. diffusion volume" units="_" value="127.74" />
<MatthiasCopemanC2 name="Mathias-Copeman C2" units="_" value="-1.3701" />
<Parachor name="Parachor" units="kg0.25.m3/s0.5/kmol" value="0.0473" />
<SpecificGravity name="Specific gravity" units="_" value="0.667684" />
<Charge name="Charge" units="_" value="0" />
<CostaldAcentricFactor name="SRK acentric factor" units="_" value="0.2741" />
<WilsonVolume name="Wilson volume" units="m3/kmol" value="0.130633" />
<UniquacR name="UNIQUAC r" units="_" value="4.499" />
<UniquacQ name="UNIQUAC q" units="_" value="3.852" />
<ApiSrkS2 name="API-SRK s2" units="_" value="-0.009786" />
<MatthiasCopemanC3 name="Mathias-Copeman C3" units="_" value="2.7417" />
<ChaoSeaderAcentricFactor name="Chao-Seader acentric factor" units="_" value="0.275" />
<ChaoSeaderSolubilityParameter name="Chao-Seader solubility parameter" units="J0.5/m1.5" value="14871.5" />
<ChaoSeaderLiquidVolume name="Chao-Seader liquid volume" units="m3/kmol" value="0.130633" />
<UnifacVLE name="UNIFAC">
  <group id="1" value="3" />
  <group id="2" value="2" />
  <group id="3" value="1" />
  </UnifacVLE>
<UnifacLLE name="UNIFAC-LLE">
  <group id="1" value="3" />
  <group id="2" value="2" />
  <group id="3" value="1" />
  </UnifacLLE>
<Asog name="ASOG">
  <group id="1" value="3" />
  <group id="2" value="2" />
  <group id="3" value="1" />
  </Asog>
<GCmethod name="PPR78">
  <group id="1" value="3" />
  <group id="2" value="2" />
  <group id="3" value="1" />
  </GCmethod>
<Umr name="UMR">
  <group id="1" value="3" />
  <group id="2" value="2" />
  <group id="3" value="1" />
  </Umr>
<ModifiedUnifac name="Modified UNIFAC">
  <group id="1" value="3" />
  <group id="2" value="2" />
  <group id="3" value="1" />
  </ModifiedUnifac>
<CAS name="CAS number" value="96-14-0" />
<Smiles name="SMILES" value="CCC(C)CC" />
</compound>

