<compound>
<LibraryIndex name="Index" value="1461" />
<CompoundID name="Name" value="anisole" />
<StructureFormula name="Structure" value="C6H5OCH3" />
<Family name="Family" value="62" />
<CriticalTemperature name="Critical temperature" units="K" value="642.15" />
<CriticalPressure name="Critical pressure" units="Pa" value="4180000" />
<CriticalVolume name="Critical volume" units="m3/kmol" value="0.337" />
<CriticalCompressibility name="Critical compressibility factor" units="_" value="0.267" />
<NormalBoilingPointTemperature name="Normal boiling point" units="K" value="426.95" />
<NormalMeltingPointTemperature name="Melting point" units="K" value="235.85" />
<TriplePointTemperature name="Triple point temperature" units="K" value="235.65" />
<TriplePointPressure name="Triple point pressure" units="Pa" value="2.44662" />
<MolecularWeight name="Molecular weight" units="kg/kmol" value="108.1378" />
<LiquidVolumeAtNormalBoilingPoint name="Liquid molar volume at normal boiling point" units="m3/kmol" value="0.109167" />
<AcentricityFactor name="Acentric factor" units="_" value="0.350169" />
<RadiusOfGyration name="Radius of gyration" units="m" value="3.719E-10" />
<SolubilityParameter name="Solubility parameter" units="J0.5/m1.5" value="20110" />
<DipoleMoment name="Dipole moment" units="Coulomb.m" value="4.54E-30" />
<VanDerWaalsVolume name="Van der Waals volume" units="m3/kmol" value="0.06321" />
<VanDerWaalsArea name="Van der Waals area" units="m2/kmol" value="8.02E+08" />
<HeatOfFormation name="IG heat of formation" units="J/kmol" value="-6.8E+07" />
<GibbsEnergyOfFormation name="IG Gibbs energy of formation" units="J/kmol" value="2.27E+07" />
<AbsEntropy name="IG absolute entropy" units="J/kmol/K" value="361000" />
<HeatOfFusionAtMeltingPoint name="Heat of fusion at melting point" units="J/kmol" value="9600000" />
<MatthiasCopemanC1 name="Mathias-Copeman C1" units="_" value="0.97849" />
<HeatOfCombustion name="Standard net heat of combustion LHV" units="J/kmol" value="-3.6018E+09" />
<SolidDensity name="Solid density" units="kmol/m3">
  <eqno value="2" />
  <A value="12.268" />
  <B value="-0.0057985" />
  <C value="0" />
  <D value="0" />
  <E value="0" />
  <Tmin units="K" value="94.26" />
  <Tmax units="K" value="235.65" />
  </SolidDensity>
<LiquidDensity name="Liquid density" units="kmol/m3">
  <eqno value="105" />
  <A value="0.67524" />
  <B value="0.24431" />
  <C value="645.61" />
  <D value="0.26239" />
  <Tmin units="K" value="235.65" />
  <Tmax units="K" value="645.6" />
  </LiquidDensity>
<VaporPressure name="Vapour pressure" units="Pa">
  <eqno value="101" />
  <A value="117.0581" />
  <B value="-9318.991" />
  <C value="-14.12565" />
  <D value="9.850515E-06" />
  <E value="2" />
  <Tmin units="K" value="235.65" />
  <Tmax units="K" value="645.6" />
  </VaporPressure>
<HeatOfVaporization name="Heat of vaporization" units="J/kmol">
  <eqno value="106" />
  <A value="6.1782E+07" />
  <B value="0.29654" />
  <C value="0.81637" />
  <D value="-1.3762" />
  <E value="0.64684" />
  <Tmin units="K" value="235.65" />
  <Tmax units="K" value="624.02" />
  </HeatOfVaporization>
<SolidHeatCapacityCp name="Solid heat capacity" units="J/kmol/K">
  <eqno value="100" />
  <A value="25569" />
  <B value="-54.962" />
  <C value="8.9953" />
  <D value="-0.053617" />
  <E value="0.00010624" />
  <Tmin units="K" value="50" />
  <Tmax units="K" value="235.6" />
  </SolidHeatCapacityCp>
<LiquidHeatCapacityCp name="Liquid heat capacity" units="J/kmol/K">
  <eqno value="16" />
  <A value="128070" />
  <B value="-77.615" />
  <C value="10.002" />
  <D value="0.0059631" />
  <E value="-0.0000043683" />
  <Tmin units="K" value="245.2" />
  <Tmax units="K" value="484.2" />
  </LiquidHeatCapacityCp>
<IdealGasHeatCapacityCp name="Ideal gas heat capacity" units="J/kmol/K">
  <eqno value="16" />
  <A value="-116340" />
  <B value="-170.41" />
  <C value="12.829" />
  <D value="0.00034368" />
  <E value="-1.0767E-07" />
  <Tmin units="K" value="235.65" />
  <Tmax units="K" value="1200" />
  </IdealGasHeatCapacityCp>
<SecondVirialCoefficient name="Second virial coefficient" units="m3/kmol">
  <eqno value="104" />
  <A value="0.24272" />
  <B value="-330.37" />
  <C value="-37.811" />
  <D value="-176890" />
  <E value="557310" />
  <Tmin units="K" value="366.91" />
  <Tmax units="K" value="1760.88" />
  </SecondVirialCoefficient>
<LiquidViscosity name="Liquid viscosity" units="Pa.s">
  <eqno value="101" />
  <A value="-16.864" />
  <B value="1572.6" />
  <C value="0.82898" />
  <D value="-2.2828E-07" />
  <E value="2" />
  <Tmin units="K" value="235.65" />
  <Tmax units="K" value="542" />
  </LiquidViscosity>
<VaporViscosity name="Vapour viscosity" units="Pa.s">
  <eqno value="102" />
  <A value="1.7587E-07" />
  <B value="0.71998" />
  <C value="171.18" />
  <D value="1705.8" />
  <Tmin units="K" value="235.65" />
  <Tmax units="K" value="1000" />
  </VaporViscosity>
<LiquidThermalConductivity name="Liquid thermal conductivity" units="W/m/K">
  <eqno value="16" />
  <A value="-0.15959" />
  <B value="21.142" />
  <C value="-1.1373" />
  <D value="-0.0000023738" />
  <E value="-0.0000009757" />
  <Tmin units="K" value="192.5" />
  <Tmax units="K" value="512.5" />
  </LiquidThermalConductivity>
<VaporThermalConductivity name="Vapour thermal conductivity" units="W/m/K">
  <eqno value="102" />
  <A value="0.00055356" />
  <B value="0.7624" />
  <C value="342.48" />
  <D value="235670" />
  <Tmin units="K" value="235.65" />
  <Tmax units="K" value="1000" />
  </VaporThermalConductivity>
<SurfaceTension name="Surface tension" units="N/m">
  <eqno value="16" />
  <A value="-0.01028" />
  <B value="76.185" />
  <C value="-3.3574" />
  <D value="0.001879" />
  <E value="-0.0000062433" />
  <Tmin units="K" value="235.65" />
  <Tmax units="K" value="624.02" />
  </SurfaceTension>
<RPPHeatCapacityCp name="Ideal gas heat capacity (RPP)" units="J/kmol/K">
  <eqno value="4" />
  <A value="-76587" />
  <B value="835.59" />
  <C value="-0.72557" />
  <D value="0.00024575" />
  <Tmin units="K" value="235.65" />
  <Tmax units="K" value="1200" />
  </RPPHeatCapacityCp>
<RelativeStaticPermittivity name="Relative static permittivity" units="_">
  <eqno value="120" />
  <A value="-3.251956" />
  <B value="-2150" />
  <C value="-12.9" />
  <Tmin units="K" value="278.5945" />
  <Tmax units="K" value="448.5945" />
  </RelativeStaticPermittivity>
<AntoineVaporPressure name="Antoine" units="Pa">
  <eqno value="10" />
  <A value="21.389" />
  <B value="3602.4" />
  <C value="-61.82" />
  <Tmin units="K" value="385.45" />
  <Tmax units="K" value="568.15" />
  </AntoineVaporPressure>
<LiquidViscosityRPS name="Liquid viscosity (RPS)" units="Pa.s">
  <eqno value="12" />
  <A value="-3.2274" />
  <B value="-0.012042" />
  <Tmin units="K" value="235.65" />
  <Tmax units="K" value="426.73" />
  </LiquidViscosityRPS>
<COSTALDVolume name="COSTLD characteristic volume (V*)" units="m3/kmol" value="0.338527" />
<DiameterLJ name="Lennard Jones diameter" units="m" value="6.333466E-10" />
<EnergyLJ name="Lennard Jones energy" units="K" value="361.4017" />
<RacketParameter name="Rackett parameter" units="_" value="0.267" />
<FullerVolume name="Fuller et al. diffusion volume" units="_" value="117.59" />
<MatthiasCopemanC2 name="Mathias-Copeman C2" units="_" value="0" />
<Parachor name="Parachor" units="kg0.25.m3/s0.5/kmol" value="0.0469574" />
<SpecificGravity name="Specific gravity" units="_" value="0.999625" />
<Charge name="Charge" units="_" value="0" />
<CostaldAcentricFactor name="SRK acentric factor" units="_" value="0.350169" />
<WilsonVolume name="Wilson volume" units="m3/kmol" value="0.109167" />
<UniquacR name="UNIQUAC r" units="_" value="4.1667" />
<UniquacQ name="UNIQUAC q" units="_" value="3.208" />
<MatthiasCopemanC3 name="Mathias-Copeman C3" units="_" value="0" />
<ChaoSeaderAcentricFactor name="Chao-Seader acentric factor" units="_" value="0.350169" />
<ChaoSeaderSolubilityParameter name="Chao-Seader solubility parameter" units="J0.5/m1.5" value="20110" />
<ChaoSeaderLiquidVolume name="Chao-Seader liquid volume" units="m3/kmol" value="0.109167" />
<UnifacVLE name="UNIFAC">
  <group id="25" value="1" />
  <group id="11" value="1" />
  <group id="10" value="5" />
  </UnifacVLE>
<UnifacLLE name="UNIFAC-LLE">
  <group id="27" value="1" />
  <group id="10" value="1" />
  <group id="9" value="5" />
  </UnifacLLE>
<Asog name="ASOG">
  <group id="1" value="1" />
  <group id="10" value="5" />
  <group id="11" value="1" />
  <group id="19" value="1" />
  </Asog>
<Umr name="UMR">
  <group id="25" value="1" />
  <group id="11" value="1" />
  <group id="10" value="5" />
  </Umr>
<ModifiedUnifac name="Modified UNIFAC">
  <group id="24" value="1" />
  <group id="10" value="1" />
  <group id="9" value="5" />
  </ModifiedUnifac>
<CAS name="CAS number" value="100-66-3" />
<Smiles name="SMILES" value="c1ccccc1(OC)" />
</compound>

