<compound>
<LibraryIndex name="Index" value="914" />
<CompoundID name="Name" value="argon" />
<StructureFormula name="Structure" value="Ar" />
<Family name="Family" value="74" />
<CriticalTemperature name="Critical temperature" units="K" value="150.86" />
<CriticalPressure name="Critical pressure" units="Pa" value="4898000" />
<CriticalVolume name="Critical volume" units="m3/kmol" value="0.07457" />
<CriticalCompressibility name="Critical compressibility factor" units="_" value="0.291" />
<NormalBoilingPointTemperature name="Normal boiling point" units="K" value="87.27" />
<NormalMeltingPointTemperature name="Melting point" units="K" value="83.8039" />
<TriplePointTemperature name="Triple point temperature" units="K" value="83.8" />
<TriplePointPressure name="Triple point pressure" units="Pa" value="68906.1" />
<MolecularWeight name="Molecular weight" units="kg/kmol" value="39.948" />
<LiquidVolumeAtNormalBoilingPoint name="Liquid molar volume at normal boiling point" units="m3/kmol" value="0.0291" />
<AcentricityFactor name="Acentric factor" units="_" value="-0.002" />
<RadiusOfGyration name="Radius of gyration" units="m" value="0" />
<SolubilityParameter name="Solubility parameter" units="J0.5/m1.5" value="14138.3" />
<DipoleMoment name="Dipole moment" units="Coulomb.m" value="0" />
<VanDerWaalsVolume name="Van der Waals volume" units="m3/kmol" value="0.0168" />
<VanDerWaalsArea name="Van der Waals area" units="m2/kmol" value="2.67E+08" />
<HeatOfFormation name="IG heat of formation" units="J/kmol" value="0" />
<GibbsEnergyOfFormation name="IG Gibbs energy of formation" units="J/kmol" value="0" />
<AbsEntropy name="IG absolute entropy" units="J/kmol/K" value="154732" />
<HeatOfFusionAtMeltingPoint name="Heat of fusion at melting point" units="J/kmol" value="1184900" />
<MatthiasCopemanC1 name="Mathias-Copeman C1" units="_" value="0.52483" />
<HeatOfCombustion name="Standard net heat of combustion LHV" units="J/kmol" value="0" />
<SolidDensity name="Solid density" units="kmol/m3">
  <eqno value="2" />
  <A value="44.333" />
  <B value="-1.8037E-15" />
  <Tmin units="K" value="0" />
  <Tmax units="K" value="9.5" />
  </SolidDensity>
<LiquidDensity name="Liquid density" units="kmol/m3">
  <eqno value="105" />
  <A value="3.803" />
  <B value="0.286" />
  <C value="150.86" />
  <D value="0.2984" />
  <Tmin units="K" value="83.78" />
  <Tmax units="K" value="150.86" />
  </LiquidDensity>
<VaporPressure name="Vapour pressure" units="Pa">
  <eqno value="101" />
  <A value="44.369" />
  <B value="-1126.1" />
  <C value="-4.5688" />
  <D value="0.000062339" />
  <E value="2" />
  <Tmin units="K" value="78.65" />
  <Tmax units="K" value="150.86" />
  </VaporPressure>
<HeatOfVaporization name="Heat of vaporization" units="J/kmol">
  <eqno value="106" />
  <A value="7981000" />
  <B value="0.099752" />
  <C value="0.32009" />
  <D value="-0.11898" />
  <E value="0.031141" />
  <Tmin units="K" value="83.78" />
  <Tmax units="K" value="147.33" />
  </HeatOfVaporization>
<LiquidHeatCapacityCp name="Liquid heat capacity" units="J/kmol/K">
  <eqno value="16" />
  <A value="46085" />
  <B value="-1304.5" />
  <C value="21.195" />
  <D value="-0.015382" />
  <E value="0.000033063" />
  <Tmin units="K" value="83.8" />
  <Tmax units="K" value="135" />
  </LiquidHeatCapacityCp>
<IdealGasHeatCapacityCp name="Ideal gas heat capacity" units="J/kmol/K">
  <eqno value="16" />
  <A value="20786" />
  <B value="0" />
  <C value="0" />
  <D value="0" />
  <E value="0" />
  <Tmin units="K" value="50" />
  <Tmax units="K" value="1500" />
  </IdealGasHeatCapacityCp>
<SecondVirialCoefficient name="Second virial coefficient" units="m3/kmol">
  <eqno value="104" />
  <A value="0.037508" />
  <B value="-15.054" />
  <C value="-0.081999" />
  <D value="0.018532" />
  <E value="-0.011981" />
  <Tmin units="K" value="75.4" />
  <Tmax units="K" value="773.15" />
  </SecondVirialCoefficient>
<LiquidViscosity name="Liquid viscosity" units="Pa.s">
  <eqno value="101" />
  <A value="-99.903" />
  <B value="1347.5" />
  <C value="17.615" />
  <D value="-0.00032893" />
  <E value="2" />
  <Tmin units="K" value="84.1" />
  <Tmax units="K" value="150" />
  </LiquidViscosity>
<VaporViscosity name="Vapour viscosity" units="Pa.s">
  <eqno value="102" />
  <A value="0.0000010023" />
  <B value="0.5922" />
  <C value="85.563" />
  <D value="238.26" />
  <Tmin units="K" value="50" />
  <Tmax units="K" value="2000" />
  </VaporViscosity>
<LiquidThermalConductivity name="Liquid thermal conductivity" units="W/m/K">
  <eqno value="16" />
  <A value="-0.30397" />
  <B value="-0.82999" />
  <C value="-0.71462" />
  <D value="-0.00039294" />
  <E value="-0.000012209" />
  <Tmin units="K" value="80" />
  <Tmax units="K" value="150" />
  </LiquidThermalConductivity>
<VaporThermalConductivity name="Vapour thermal conductivity" units="W/m/K">
  <eqno value="102" />
  <A value="0.00013095" />
  <B value="0.81923" />
  <C value="-122.33" />
  <D value="13993" />
  <Tmin units="K" value="90" />
  <Tmax units="K" value="2000" />
  </VaporThermalConductivity>
<SurfaceTension name="Surface tension" units="N/m">
  <eqno value="16" />
  <A value="-0.0029464" />
  <B value="165.33" />
  <C value="-8.8347" />
  <D value="0.058394" />
  <E value="-0.00030536" />
  <Tmin units="K" value="83.78" />
  <Tmax units="K" value="147.33" />
  </SurfaceTension>
<RPPHeatCapacityCp name="Ideal gas heat capacity (RPP)" units="J/kmol/K">
  <eqno value="100" />
  <A value="20786" />
  <B value="0" />
  <C value="0" />
  <D value="0" />
  <E value="0" />
  <Tmin units="K" value="50" />
  <Tmax units="K" value="1000" />
  </RPPHeatCapacityCp>
<RelativeStaticPermittivity name="Relative static permittivity" units="_">
  <eqno value="1" />
  <A value="1.000513" />
  <Tmin units="K" value="100" />
  <Tmax units="K" value="1500" />
  </RelativeStaticPermittivity>
<AntoineVaporPressure name="Antoine" units="Pa">
  <eqno value="10" />
  <A value="20.673" />
  <B value="804.37" />
  <C value="0.74965" />
  <Tmin units="K" value="90.84" />
  <Tmax units="K" value="135" />
  </AntoineVaporPressure>
<LiquidViscosityRPS name="Liquid viscosity (RPS)" units="Pa.s">
  <eqno value="13" />
  <A value="-6.9431" />
  <B value="-0.0071879" />
  <C value="-0.000089817" />
  <Tmin units="K" value="84.1" />
  <Tmax units="K" value="150" />
  </LiquidViscosityRPS>
<COSTALDVolume name="COSTLD characteristic volume (V*)" units="m3/kmol" value="0.07541" />
<DiameterLJ name="Lennard Jones diameter" units="m" value="3.454841E-10" />
<EnergyLJ name="Lennard Jones energy" units="K" value="115.745" />
<FullerVolume name="Fuller et al. diffusion volume" units="_" value="16.2" />
<MatthiasCopemanC2 name="Mathias-Copeman C2" units="_" value="-0.47531" />
<Parachor name="Parachor" units="kg0.25.m3/s0.5/kmol" value="0.00961" />
<SpecificGravity name="Specific gravity" units="_" value="1.37018" />
<Charge name="Charge" units="_" value="0" />
<CostaldAcentricFactor name="SRK acentric factor" units="_" value="-0.0092" />
<WilsonVolume name="Wilson volume" units="m3/kmol" value="0.0285865" />
<UniquacR name="UNIQUAC r" units="_" value="1.1074" />
<UniquacQ name="UNIQUAC q" units="_" value="1.068" />
<ApiSrkS2 name="API-SRK s2" units="_" value="-0.011721" />
<MatthiasCopemanC3 name="Mathias-Copeman C3" units="_" value="0.97237" />
<ChaoSeaderAcentricFactor name="Chao-Seader acentric factor" units="_" value="-0.002" />
<ChaoSeaderSolubilityParameter name="Chao-Seader solubility parameter" units="J0.5/m1.5" value="14138.3" />
<ChaoSeaderLiquidVolume name="Chao-Seader liquid volume" units="m3/kmol" value="0.0285865" />
<GCmethod name="PPR78">
  <group id="30" value="1" />
  </GCmethod>
<Umr name="UMR">
  <group id="201" value="1" />
  </Umr>
<CAS name="CAS number" value="7440-37-1" />
<Smiles name="SMILES" value="[Ar]" />
</compound>

