<compound>
<LibraryIndex name="Index" value="1893" />
<CompoundID name="Name" value="carbonyl sulfide" />
<StructureFormula name="Structure" value="OCS" />
<Family name="Family" value="24" />
<CriticalTemperature name="Critical temperature" units="K" value="375.15" />
<CriticalPressure name="Critical pressure" units="Pa" value="6349000" />
<CriticalVolume name="Critical volume" units="m3/kmol" value="0.14" />
<CriticalCompressibility name="Critical compressibility factor" units="_" value="0.272" />
<NormalBoilingPointTemperature name="Normal boiling point" units="K" value="223.15" />
<NormalMeltingPointTemperature name="Melting point" units="K" value="134.35" />
<TriplePointTemperature name="Triple point temperature" units="K" value="134.3" />
<TriplePointPressure name="Triple point pressure" units="Pa" value="101.325" />
<MolecularWeight name="Molecular weight" units="kg/kmol" value="60.0751" />
<LiquidVolumeAtNormalBoilingPoint name="Liquid molar volume at normal boiling point" units="m3/kmol" value="0.0510474" />
<AcentricityFactor name="Acentric factor" units="_" value="0.137779" />
<RadiusOfGyration name="Radius of gyration" units="m" value="1.176E-10" />
<SolubilityParameter name="Solubility parameter" units="J0.5/m1.5" value="14270" />
<DipoleMoment name="Dipole moment" units="Coulomb.m" value="2.37E-30" />
<VanDerWaalsVolume name="Van der Waals volume" units="m3/kmol" value="0.0259" />
<VanDerWaalsArea name="Van der Waals area" units="m2/kmol" value="4.05247E+08" />
<HeatOfFormation name="IG heat of formation" units="J/kmol" value="-1.3841E+08" />
<GibbsEnergyOfFormation name="IG Gibbs energy of formation" units="J/kmol" value="-1.692E+08" />
<AbsEntropy name="IG absolute entropy" units="J/kmol/K" value="231470" />
<HeatOfFusionAtMeltingPoint name="Heat of fusion at melting point" units="J/kmol" value="4725000" />
<MatthiasCopemanC1 name="Mathias-Copeman C1" units="_" value="0.7" />
<HeatOfCombustion name="Standard net heat of combustion LHV" units="J/kmol" value="-5.4827E+08" />
<SolidDensity name="Solid density" units="kmol/m3">
  <eqno value="2" />
  <A value="28.192" />
  <B value="-0.022652" />
  <C value="0" />
  <D value="0" />
  <E value="0" />
  <Tmin units="K" value="53.72" />
  <Tmax units="K" value="134.3" />
  </SolidDensity>
<LiquidDensity name="Liquid density" units="kmol/m3">
  <eqno value="105" />
  <A value="1.8896" />
  <B value="0.27226" />
  <C value="378.81" />
  <D value="0.25315" />
  <Tmin units="K" value="134.3" />
  <Tmax units="K" value="378.8" />
  </LiquidDensity>
<VaporPressure name="Vapour pressure" units="Pa">
  <eqno value="101" />
  <A value="74.34266" />
  <B value="-3813.497" />
  <C value="-8.620386" />
  <D value="0.0000180431" />
  <E value="2" />
  <Tmin units="K" value="134.3" />
  <Tmax units="K" value="378.8" />
  </VaporPressure>
<HeatOfVaporization name="Heat of vaporization" units="J/kmol">
  <eqno value="106" />
  <A value="3.0555E+07" />
  <B value="0.84937" />
  <C value="-0.32129" />
  <D value="-0.52716" />
  <E value="0.40226" />
  <Tmin units="K" value="134.3" />
  <Tmax units="K" value="365.93" />
  </HeatOfVaporization>
<SolidHeatCapacityCp name="Solid heat capacity" units="J/kmol/K">
  <eqno value="100" />
  <A value="-16418" />
  <B value="1744.6" />
  <C value="-20.143" />
  <D value="0.10176" />
  <E value="-0.00014754" />
  <Tmin units="K" value="15.53" />
  <Tmax units="K" value="131.07" />
  </SolidHeatCapacityCp>
<LiquidHeatCapacityCp name="Liquid heat capacity" units="J/kmol/K">
  <eqno value="16" />
  <A value="71808" />
  <B value="-8528.4" />
  <C value="73.159" />
  <D value="-0.16854" />
  <E value="0.00016953" />
  <Tmin units="K" value="134.3" />
  <Tmax units="K" value="378" />
  </LiquidHeatCapacityCp>
<IdealGasHeatCapacityCp name="Ideal gas heat capacity" units="J/kmol/K">
  <eqno value="16" />
  <A value="28351" />
  <B value="-363.89" />
  <C value="10.752" />
  <D value="-0.00019902" />
  <E value="7.0945E-08" />
  <Tmin units="K" value="100" />
  <Tmax units="K" value="1500" />
  </IdealGasHeatCapacityCp>
<SecondVirialCoefficient name="Second virial coefficient" units="m3/kmol">
  <eqno value="104" />
  <A value="0.07781" />
  <B value="-70.275" />
  <C value="-3.5992" />
  <D value="374.85" />
  <E value="-723.14" />
  <Tmin units="K" value="189.4" />
  <Tmax units="K" value="1889.4" />
  </SecondVirialCoefficient>
<LiquidViscosity name="Liquid viscosity" units="Pa.s">
  <eqno value="101" />
  <A value="-9.091" />
  <B value="494.42" />
  <C value="-0.20653" />
  <D value="-6.4588E-07" />
  <E value="2" />
  <Tmin units="K" value="134.3" />
  <Tmax units="K" value="300.12" />
  </LiquidViscosity>
<VaporViscosity name="Vapour viscosity" units="Pa.s">
  <eqno value="102" />
  <A value="0.000010184" />
  <B value="0.2938" />
  <C value="1012.7" />
  <D value="-12250" />
  <Tmin units="K" value="134.3" />
  <Tmax units="K" value="1000" />
  </VaporViscosity>
<LiquidThermalConductivity name="Liquid thermal conductivity" units="W/m/K">
  <eqno value="16" />
  <A value="0.032218" />
  <B value="-41.011" />
  <C value="-0.83624" />
  <D value="-0.0051268" />
  <E value="0.0000012154" />
  <Tmin units="K" value="134.3" />
  <Tmax units="K" value="223" />
  </LiquidThermalConductivity>
<VaporThermalConductivity name="Vapour thermal conductivity" units="W/m/K">
  <eqno value="102" />
  <A value="0.0012701" />
  <B value="0.60437" />
  <C value="545.23" />
  <D value="3627.6" />
  <Tmin units="K" value="223" />
  <Tmax units="K" value="1000" />
  </VaporThermalConductivity>
<SurfaceTension name="Surface tension" units="N/m">
  <eqno value="16" />
  <A value="-0.0021071" />
  <B value="518.04" />
  <C value="-11.034" />
  <D value="0.04165" />
  <E value="-0.000087273" />
  <Tmin units="K" value="134.3" />
  <Tmax units="K" value="365.93" />
  </SurfaceTension>
<RPPHeatCapacityCp name="Ideal gas heat capacity (RPP)" units="J/kmol/K">
  <eqno value="4" />
  <A value="21713" />
  <B value="84.752" />
  <C value="-0.070005" />
  <D value="0.000020554" />
  <Tmin units="K" value="100" />
  <Tmax units="K" value="1500" />
  </RPPHeatCapacityCp>
<AntoineVaporPressure name="Antoine" units="Pa">
  <eqno value="10" />
  <A value="21.073" />
  <B value="1954.8" />
  <C value="-19.521" />
  <Tmin units="K" value="233.15" />
  <Tmax units="K" value="333.15" />
  </AntoineVaporPressure>
<LiquidViscosityRPS name="Liquid viscosity (RPS)" units="Pa.s">
  <eqno value="12" />
  <A value="-4.2041" />
  <B value="-0.017582" />
  <Tmin units="K" value="134.3" />
  <Tmax units="K" value="223" />
  </LiquidViscosityRPS>
<COSTALDVolume name="COSTLD characteristic volume (V*)" units="m3/kmol" value="0.137387" />
<DiameterLJ name="Lennard Jones diameter" units="m" value="4.621734E-10" />
<EnergyLJ name="Lennard Jones energy" units="K" value="225.718" />
<RacketParameter name="Rackett parameter" units="_" value="0.272" />
<FullerVolume name="Fuller et al. diffusion volume" units="_" value="44.91" />
<MatthiasCopemanC2 name="Mathias-Copeman C2" units="_" value="0" />
<Parachor name="Parachor" units="kg0.25.m3/s0.5/kmol" value="0.0194842" />
<SpecificGravity name="Specific gravity" units="_" value="1.24" />
<Charge name="Charge" units="_" value="0" />
<CostaldAcentricFactor name="SRK acentric factor" units="_" value="0.096" />
<WilsonVolume name="Wilson volume" units="m3/kmol" value="0.0510474" />
<UniquacR name="UNIQUAC r" units="_" value="1.707317" />
<UniquacQ name="UNIQUAC q" units="_" value="1.620988" />
<ApiSrkS1 name="API-SRK s1" units="_" value="0.59245" />
<ApiSrkS2 name="API-SRK s2" units="_" value="0.02642" />
<MatthiasCopemanC3 name="Mathias-Copeman C3" units="_" value="0" />
<ChaoSeaderAcentricFactor name="Chao-Seader acentric factor" units="_" value="0.096" />
<ChaoSeaderSolubilityParameter name="Chao-Seader solubility parameter" units="J0.5/m1.5" value="14270" />
<ChaoSeaderLiquidVolume name="Chao-Seader liquid volume" units="m3/kmol" value="0.0510474" />
<GCmethod name="PPR78">
  <group id="34" value="1" />
  </GCmethod>
<Umr name="UMR">
  <group id="227" value="1" />
  </Umr>
<CAS name="CAS number" value="463-58-1" />
<Smiles name="SMILES" value="O=C=S" />
</compound>

