<compound>
<LibraryIndex name="Index" value="1501" />
<CompoundID name="Name" value="carbon tetrachloride" />
<StructureFormula name="Structure" value="CCl4" />
<Family name="Family" value="65" />
<CriticalTemperature name="Critical temperature" units="K" value="556.3" />
<CriticalPressure name="Critical pressure" units="Pa" value="4557000" />
<CriticalVolume name="Critical volume" units="m3/kmol" value="0.276" />
<CriticalCompressibility name="Critical compressibility factor" units="_" value="0.271" />
<NormalBoilingPointTemperature name="Normal boiling point" units="K" value="349.79" />
<NormalMeltingPointTemperature name="Melting point" units="K" value="250.33" />
<TriplePointTemperature name="Triple point temperature" units="K" value="250.33" />
<TriplePointPressure name="Triple point pressure" units="Pa" value="1122.46" />
<MolecularWeight name="Molecular weight" units="kg/kmol" value="153.8227" />
<LiquidVolumeAtNormalBoilingPoint name="Liquid molar volume at normal boiling point" units="m3/kmol" value="0.09707" />
<AcentricityFactor name="Acentric factor" units="_" value="0.187" />
<RadiusOfGyration name="Radius of gyration" units="m" value="3.482E-10" />
<SolubilityParameter name="Solubility parameter" units="J0.5/m1.5" value="17550" />
<DipoleMoment name="Dipole moment" units="Coulomb.m" value="0" />
<VanDerWaalsVolume name="Van der Waals volume" units="m3/kmol" value="0.0523" />
<VanDerWaalsArea name="Van der Waals area" units="m2/kmol" value="7.28E+08" />
<HeatOfFormation name="IG heat of formation" units="J/kmol" value="-9.581E+07" />
<GibbsEnergyOfFormation name="IG Gibbs energy of formation" units="J/kmol" value="-5.354E+07" />
<AbsEntropy name="IG absolute entropy" units="J/kmol/K" value="309910" />
<HeatOfFusionAtMeltingPoint name="Heat of fusion at melting point" units="J/kmol" value="2535000" />
<MatthiasCopemanC1 name="Mathias-Copeman C1" units="_" value="0.8319" />
<HeatOfCombustion name="Standard net heat of combustion LHV" units="J/kmol" value="-2.653E+08" />
<SolidDensity name="Solid density" units="kmol/m3">
  <eqno value="2" />
  <A value="13.438" />
  <B value="-0.0072903" />
  <C value="0.00003899" />
  <Tmin units="K" value="83.15" />
  <Tmax units="K" value="250.33" />
  </SolidDensity>
<LiquidDensity name="Liquid density" units="kmol/m3">
  <eqno value="105" />
  <A value="1.0721" />
  <B value="0.28328" />
  <C value="556.3" />
  <D value="0.30092" />
  <Tmin units="K" value="250.33" />
  <Tmax units="K" value="554.7" />
  </LiquidDensity>
<VaporPressure name="Vapour pressure" units="Pa">
  <eqno value="101" />
  <A value="82.671" />
  <B value="-6304.2" />
  <C value="-9.2247" />
  <D value="0.0000074352" />
  <E value="2" />
  <Tmin units="K" value="213.45" />
  <Tmax units="K" value="556.35" />
  </VaporPressure>
<HeatOfVaporization name="Heat of vaporization" units="J/kmol">
  <eqno value="106" />
  <A value="3.1764E+07" />
  <B value="-1.5729" />
  <C value="5.2158" />
  <D value="-5.5259" />
  <E value="2.1931" />
  <Tmin units="K" value="250.33" />
  <Tmax units="K" value="553.15" />
  </HeatOfVaporization>
<SolidHeatCapacityCp name="Solid heat capacity" units="J/kmol/K">
  <eqno value="100" />
  <A value="60986" />
  <B value="-293.46" />
  <C value="5.2282" />
  <D value="-0.019314" />
  <E value="0.00002862" />
  <Tmin units="K" value="89.99" />
  <Tmax units="K" value="250.33" />
  </SolidHeatCapacityCp>
<LiquidHeatCapacityCp name="Liquid heat capacity" units="J/kmol/K">
  <eqno value="16" />
  <A value="129390" />
  <B value="1959.2" />
  <C value="-18.833" />
  <D value="0.080834" />
  <E value="-0.000047491" />
  <Tmin units="K" value="250.33" />
  <Tmax units="K" value="388.71" />
  </LiquidHeatCapacityCp>
<IdealGasHeatCapacityCp name="Ideal gas heat capacity" units="J/kmol/K">
  <eqno value="16" />
  <A value="37588.04" />
  <B value="-242.5309" />
  <C value="11.66726" />
  <D value="-0.000446049" />
  <E value="1.391101E-07" />
  <Tmin units="K" value="50" />
  <Tmax units="K" value="1500" />
  </IdealGasHeatCapacityCp>
<SecondVirialCoefficient name="Second virial coefficient" units="m3/kmol">
  <eqno value="104" />
  <A value="0.20113" />
  <B value="-311.19" />
  <C value="-16.896" />
  <D value="-1136.9" />
  <E value="1442.5" />
  <Tmin units="K" value="278.2" />
  <Tmax units="K" value="2000" />
  </SecondVirialCoefficient>
<LiquidViscosity name="Liquid viscosity" units="Pa.s">
  <eqno value="101" />
  <A value="-22.297" />
  <B value="1645" />
  <C value="1.7588" />
  <D value="-0.0000028163" />
  <E value="2" />
  <Tmin units="K" value="250" />
  <Tmax units="K" value="473" />
  </LiquidViscosity>
<VaporViscosity name="Vapour viscosity" units="Pa.s">
  <eqno value="102" />
  <A value="0.0000029947" />
  <B value="0.37756" />
  <C value="454.35" />
  <D value="5708.3" />
  <Tmin units="K" value="250.33" />
  <Tmax units="K" value="1000" />
  </VaporViscosity>
<LiquidThermalConductivity name="Liquid thermal conductivity" units="W/m/K">
  <eqno value="16" />
  <A value="0.034432" />
  <B value="-227.95" />
  <C value="-0.38117" />
  <D value="-0.0048371" />
  <E value="-0.0000011782" />
  <Tmin units="K" value="250.33" />
  <Tmax units="K" value="428.15" />
  </LiquidThermalConductivity>
<VaporThermalConductivity name="Vapour thermal conductivity" units="W/m/K">
  <eqno value="102" />
  <A value="0.0001208" />
  <B value="0.98541" />
  <C value="1411.1" />
  <D value="-36584" />
  <Tmin units="K" value="250.33" />
  <Tmax units="K" value="1000" />
  </VaporThermalConductivity>
<SurfaceTension name="Surface tension" units="N/m">
  <eqno value="16" />
  <A value="-0.010075" />
  <B value="136.76" />
  <C value="-4.0687" />
  <D value="0.0038054" />
  <E value="-0.0000094387" />
  <Tmin units="K" value="250.33" />
  <Tmax units="K" value="540.24" />
  </SurfaceTension>
<RPPHeatCapacityCp name="Ideal gas heat capacity (RPP)" units="J/kmol/K">
  <eqno value="100" />
  <A value="20936" />
  <B value="348.23" />
  <C value="-0.59532" />
  <D value="0.00047717" />
  <E value="-0.000000146" />
  <Tmin units="K" value="200" />
  <Tmax units="K" value="1000" />
  </RPPHeatCapacityCp>
<RelativeStaticPermittivity name="Relative static permittivity" units="_">
  <eqno value="120" />
  <A value="-1.638772" />
  <B value="-1100" />
  <C value="-6.6" />
  <Tmin units="K" value="274.15" />
  <Tmax units="K" value="444.15" />
  </RelativeStaticPermittivity>
<AntoineVaporPressure name="Antoine" units="Pa">
  <eqno value="10" />
  <A value="20.994" />
  <B value="2974" />
  <C value="-35.755" />
  <Tmin units="K" value="336.67" />
  <Tmax units="K" value="498.45" />
  </AntoineVaporPressure>
<LiquidViscosityRPS name="Liquid viscosity (RPS)" units="Pa.s">
  <eqno value="13" />
  <A value="-0.26584" />
  <B value="-0.031175" />
  <C value="0.000028846" />
  <Tmin units="K" value="250" />
  <Tmax units="K" value="455" />
  </LiquidViscosityRPS>
<COSTALDVolume name="COSTLD characteristic volume (V*)" units="m3/kmol" value="0.2754" />
<DiameterLJ name="Lennard Jones diameter" units="m" value="5.820829E-10" />
<EnergyLJ name="Lennard Jones energy" units="K" value="330.3023" />
<FullerVolume name="Fuller et al. diffusion volume" units="_" value="99.9" />
<MatthiasCopemanC2 name="Mathias-Copeman C2" units="_" value="-0.55223" />
<Parachor name="Parachor" units="kg0.25.m3/s0.5/kmol" value="0.0391" />
<SpecificGravity name="Specific gravity" units="_" value="1.60128" />
<Charge name="Charge" units="_" value="0" />
<CostaldAcentricFactor name="SRK acentric factor" units="_" value="0.1875" />
<WilsonVolume name="Wilson volume" units="m3/kmol" value="0.0971395" />
<UniquacR name="UNIQUAC r" units="_" value="3.33" />
<UniquacQ name="UNIQUAC q" units="_" value="2.82" />
<UniquacQP name="UNIQUAC q'" units="_" value="2.82" />
<MatthiasCopemanC3 name="Mathias-Copeman C3" units="_" value="1.2581" />
<ChaoSeaderAcentricFactor name="Chao-Seader acentric factor" units="_" value="1.695" />
<ChaoSeaderSolubilityParameter name="Chao-Seader solubility parameter" units="J0.5/m1.5" value="17546.4" />
<ChaoSeaderLiquidVolume name="Chao-Seader liquid volume" units="m3/kmol" value="0.0971395" />
<UnifacVLE name="UNIFAC">
  <group id="53" value="1" />
  </UnifacVLE>
<UnifacLLE name="UNIFAC-LLE">
  <group id="39" value="1" />
  </UnifacLLE>
<GCmethod name="PPR78">
  <group id="53" value="1" />
  </GCmethod>
<Umr name="UMR">
  <group id="53" value="1" />
  </Umr>
<ModifiedUnifac name="Modified UNIFAC">
  <group id="52" value="1" />
  </ModifiedUnifac>
<CAS name="CAS number" value="56-23-5" />
<Smiles name="SMILES" value="C([Cl])([Cl])([Cl])[Cl]" />
</compound>

