<compound>
<LibraryIndex name="Index" value="144" />
<CompoundID name="Name" value="cis-1,3-dimethylcyclohexane" />
<StructureFormula name="Structure" value="-CH(CH3)CH2CH(CH3)(CH2)3-" />
<Family name="Family" value="7" />
<CriticalTemperature name="Critical temperature" units="K" value="591.15" />
<CriticalPressure name="Critical pressure" units="Pa" value="2938430" />
<CriticalVolume name="Critical volume" units="m3/kmol" value="0.45" />
<CriticalCompressibility name="Critical compressibility factor" units="_" value="0.269" />
<NormalBoilingPointTemperature name="Normal boiling point" units="K" value="393.24" />
<NormalMeltingPointTemperature name="Melting point" units="K" value="197.61" />
<TriplePointTemperature name="Triple point temperature" units="K" value="197.58" />
<TriplePointPressure name="Triple point pressure" units="Pa" value="0.562747" />
<MolecularWeight name="Molecular weight" units="kg/kmol" value="112.2126" />
<LiquidVolumeAtNormalBoilingPoint name="Liquid molar volume at normal boiling point" units="m3/kmol" value="0.147281" />
<AcentricityFactor name="Acentric factor" units="_" value="0.2414" />
<RadiusOfGyration name="Radius of gyration" units="m" value="3.972E-10" />
<SolubilityParameter name="Solubility parameter" units="J0.5/m1.5" value="15640" />
<DipoleMoment name="Dipole moment" units="Coulomb.m" value="0" />
<VanDerWaalsVolume name="Van der Waals volume" units="m3/kmol" value="0.08068" />
<VanDerWaalsArea name="Van der Waals area" units="m2/kmol" value="1.021E+09" />
<HeatOfFormation name="IG heat of formation" units="J/kmol" value="-1.84765E+08" />
<GibbsEnergyOfFormation name="IG Gibbs energy of formation" units="J/kmol" value="2.98319E+07" />
<AbsEntropy name="IG absolute entropy" units="J/kmol/K" value="370451" />
<HeatOfFusionAtMeltingPoint name="Heat of fusion at melting point" units="J/kmol" value="1.08211E+07" />
<MatthiasCopemanC1 name="Mathias-Copeman C1" units="_" value="0.91108" />
<HeatOfCombustion name="Standard net heat of combustion LHV" units="J/kmol" value="-4.85972E+09" />
<SolidDensity name="Solid density" units="kmol/m3">
  <eqno value="2" />
  <A value="9.4975" />
  <B value="-0.0053365" />
  <C value="0" />
  <D value="0" />
  <E value="0" />
  <Tmin units="K" value="79.03" />
  <Tmax units="K" value="197.58" />
  </SolidDensity>
<LiquidDensity name="Liquid density" units="kmol/m3">
  <eqno value="105" />
  <A value="0.56146" />
  <B value="0.25431" />
  <C value="591.15" />
  <D value="0.28196" />
  <Tmin units="K" value="197.58" />
  <Tmax units="K" value="591.15" />
  </LiquidDensity>
<VaporPressure name="Vapour pressure" units="Pa">
  <eqno value="101" />
  <A value="80.304" />
  <B value="-6952.9" />
  <C value="-8.6838" />
  <D value="0.000005071" />
  <E value="2" />
  <Tmin units="K" value="197.58" />
  <Tmax units="K" value="591.15" />
  </VaporPressure>
<HeatOfVaporization name="Heat of vaporization" units="J/kmol">
  <eqno value="106" />
  <A value="6.8345E+07" />
  <B value="2.0984" />
  <C value="-4.3187" />
  <D value="4.4054" />
  <E value="-1.7047" />
  <Tmin units="K" value="197.58" />
  <Tmax units="K" value="591.15" />
  </HeatOfVaporization>
<SolidHeatCapacityCp name="Solid heat capacity" units="J/kmol/K">
  <eqno value="100" />
  <A value="-12749" />
  <B value="1536.3" />
  <C value="-10.653" />
  <D value="0.050633" />
  <E value="-0.000085289" />
  <Tmin units="K" value="11.75" />
  <Tmax units="K" value="182.14" />
  </SolidHeatCapacityCp>
<LiquidHeatCapacityCp name="Liquid heat capacity" units="J/kmol/K">
  <eqno value="16" />
  <A value="91638" />
  <B value="67.51" />
  <C value="9.6813" />
  <D value="0.0069535" />
  <E value="-0.0000034278" />
  <Tmin units="K" value="197.58" />
  <Tmax units="K" value="393.24" />
  </LiquidHeatCapacityCp>
<IdealGasHeatCapacityCp name="Ideal gas heat capacity" units="J/kmol/K">
  <eqno value="16" />
  <A value="100690" />
  <B value="-836.69" />
  <C value="13.908" />
  <D value="-0.00051206" />
  <E value="1.3582E-07" />
  <Tmin units="K" value="200" />
  <Tmax units="K" value="1500" />
  </IdealGasHeatCapacityCp>
<SecondVirialCoefficient name="Second virial coefficient" units="m3/kmol">
  <eqno value="104" />
  <A value="0.24082" />
  <B value="-317.36" />
  <C value="-39.085" />
  <D value="-11376" />
  <E value="30465" />
  <Tmin units="K" value="295.58" />
  <Tmax units="K" value="2000" />
  </SecondVirialCoefficient>
<LiquidViscosity name="Liquid viscosity" units="Pa.s">
  <eqno value="101" />
  <A value="-19.068" />
  <B value="1358.3" />
  <C value="1.3526" />
  <D value="-0.0000038202" />
  <E value="2" />
  <Tmin units="K" value="197.58" />
  <Tmax units="K" value="393.24" />
  </LiquidViscosity>
<VaporViscosity name="Vapour viscosity" units="Pa.s">
  <eqno value="102" />
  <A value="0.0000012434" />
  <B value="0.44274" />
  <C value="472.75" />
  <D value="75.213" />
  <Tmin units="K" value="393.24" />
  <Tmax units="K" value="1000" />
  </VaporViscosity>
<LiquidThermalConductivity name="Liquid thermal conductivity" units="W/m/K">
  <eqno value="16" />
  <A value="-0.04198" />
  <B value="-3.8682" />
  <C value="-1.5284" />
  <D value="-0.00074068" />
  <E value="-0.0000011056" />
  <Tmin units="K" value="197.58" />
  <Tmax units="K" value="393.24" />
  </LiquidThermalConductivity>
<VaporThermalConductivity name="Vapour thermal conductivity" units="W/m/K">
  <eqno value="102" />
  <A value="0.015195" />
  <B value="0.35206" />
  <C value="-46.167" />
  <D value="870770" />
  <Tmin units="K" value="197.58" />
  <Tmax units="K" value="1000" />
  </VaporThermalConductivity>
<SurfaceTension name="Surface tension" units="N/m">
  <eqno value="16" />
  <A value="-0.0081816" />
  <B value="58.739" />
  <C value="-3.5009" />
  <D value="0.0012572" />
  <E value="-0.0000062077" />
  <Tmin units="K" value="197.58" />
  <Tmax units="K" value="591.15" />
  </SurfaceTension>
<RPPHeatCapacityCp name="Ideal gas heat capacity (RPP)" units="J/kmol/K">
  <eqno value="4" />
  <A value="-42404" />
  <B value="786.83" />
  <C value="-0.37657" />
  <D value="0.000059811" />
  <Tmin units="K" value="200" />
  <Tmax units="K" value="1500" />
  </RPPHeatCapacityCp>
<AntoineVaporPressure name="Antoine" units="Pa">
  <eqno value="10" />
  <A value="20.487" />
  <B value="2985.3" />
  <C value="-60.096" />
  <Tmin units="K" value="356.47" />
  <Tmax units="K" value="529.01" />
  </AntoineVaporPressure>
<LiquidViscosityRPS name="Liquid viscosity (RPS)" units="Pa.s">
  <eqno value="12" />
  <A value="-2.696" />
  <B value="-0.014492" />
  <Tmin units="K" value="197.58" />
  <Tmax units="K" value="393.24" />
  </LiquidViscosityRPS>
<COSTALDVolume name="COSTLD characteristic volume (V*)" units="m3/kmol" value="0.438832" />
<DiameterLJ name="Lennard Jones diameter" units="m" value="6.912149E-10" />
<EnergyLJ name="Lennard Jones energy" units="K" value="341.7583" />
<RacketParameter name="Rackett parameter" units="_" value="0.269" />
<FullerVolume name="Fuller et al. diffusion volume" units="_" value="164.16" />
<MatthiasCopemanC2 name="Mathias-Copeman C2" units="_" value="0" />
<Parachor name="Parachor" units="kg0.25.m3/s0.5/kmol" value="0.0570895" />
<SpecificGravity name="Specific gravity" units="_" value="0.770374" />
<Charge name="Charge" units="_" value="0" />
<CostaldAcentricFactor name="SRK acentric factor" units="_" value="0.2414" />
<WilsonVolume name="Wilson volume" units="m3/kmol" value="0.147281" />
<UniquacR name="UNIQUAC r" units="_" value="5.3936" />
<UniquacQ name="UNIQUAC q" units="_" value="4.312" />
<ApiSrkS2 name="API-SRK s2" units="_" value="0.010622" />
<MatthiasCopemanC3 name="Mathias-Copeman C3" units="_" value="0" />
<ChaoSeaderAcentricFactor name="Chao-Seader acentric factor" units="_" value="0.2414" />
<ChaoSeaderSolubilityParameter name="Chao-Seader solubility parameter" units="J0.5/m1.5" value="15640" />
<ChaoSeaderLiquidVolume name="Chao-Seader liquid volume" units="m3/kmol" value="0.147281" />
<UnifacVLE name="UNIFAC">
  <group id="1" value="2" />
  <group id="2" value="4" />
  <group id="3" value="2" />
  </UnifacVLE>
<UnifacLLE name="UNIFAC-LLE">
  <group id="1" value="2" />
  <group id="2" value="4" />
  <group id="3" value="2" />
  </UnifacLLE>
<Asog name="ASOG">
  <group id="1" value="2" />
  <group id="2" value="4" />
  <group id="3" value="2" />
  </Asog>
<GCmethod name="PPR78">
  <group id="1" value="2" />
  <group id="10" value="4" />
  <group id="11" value="2" />
  </GCmethod>
<Umr name="UMR">
  <group id="1" value="2" />
  <group id="2" value="4" />
  <group id="3" value="2" />
  </Umr>
<ModifiedUnifac name="Modified UNIFAC">
  <group id="1" value="2" />
  <group id="78" value="4" />
  <group id="79" value="2" />
  </ModifiedUnifac>
<CAS name="CAS number" value="638-04-0" />
<Smiles name="SMILES" value="C1[C@@](C)([H])(C[C@]([H])(C)(CC1))" />
</compound>

