<compound>
<LibraryIndex name="Index" value="217" />
<CompoundID name="Name" value="cis-2-hexene" />
<StructureFormula name="Structure" value="CH3CHCH(CH2)2CH3" />
<Family name="Family" value="10" />
<CriticalTemperature name="Critical temperature" units="K" value="511.4" />
<CriticalPressure name="Critical pressure" units="Pa" value="3160000" />
<CriticalVolume name="Critical volume" units="m3/kmol" value="0.345" />
<CriticalCompressibility name="Critical compressibility factor" units="_" value="0.256" />
<NormalBoilingPointTemperature name="Normal boiling point" units="K" value="342.03" />
<NormalMeltingPointTemperature name="Melting point" units="K" value="132" />
<TriplePointTemperature name="Triple point temperature" units="K" value="132.03" />
<TriplePointPressure name="Triple point pressure" units="Pa" value="0.000232" />
<MolecularWeight name="Molecular weight" units="kg/kmol" value="84.15948" />
<LiquidVolumeAtNormalBoilingPoint name="Liquid molar volume at normal boiling point" units="m3/kmol" value="0.1234" />
<AcentricityFactor name="Acentric factor" units="_" value="0.287374" />
<RadiusOfGyration name="Radius of gyration" units="m" value="3.76E-10" />
<SolubilityParameter name="Solubility parameter" units="J0.5/m1.5" value="15360" />
<DipoleMoment name="Dipole moment" units="Coulomb.m" value="1.015E-30" />
<VanDerWaalsVolume name="Van der Waals volume" units="m3/kmol" value="0.06474" />
<VanDerWaalsArea name="Van der Waals area" units="m2/kmol" value="9.1E+08" />
<HeatOfFormation name="IG heat of formation" units="J/kmol" value="-4.856E+07" />
<GibbsEnergyOfFormation name="IG Gibbs energy of formation" units="J/kmol" value="8.025E+07" />
<AbsEntropy name="IG absolute entropy" units="J/kmol/K" value="386500" />
<HeatOfFusionAtMeltingPoint name="Heat of fusion at melting point" units="J/kmol" value="8857530" />
<MatthiasCopemanC1 name="Mathias-Copeman C1" units="_" value="0.90348" />
<HeatOfCombustion name="Standard net heat of combustion LHV" units="J/kmol" value="-3.728E+09" />
<SolidDensity name="Solid density" units="kmol/m3">
  <eqno value="2" />
  <A value="12.357" />
  <B value="-0.010385" />
  <C value="0" />
  <D value="0" />
  <E value="0" />
  <Tmin units="K" value="52.81" />
  <Tmax units="K" value="132.03" />
  </SolidDensity>
<LiquidDensity name="Liquid density" units="kmol/m3">
  <eqno value="105" />
  <A value="0.77464" />
  <B value="0.2672" />
  <C value="511.4" />
  <D value="0.28571" />
  <Tmin units="K" value="132.03" />
  <Tmax units="K" value="511.4" />
  </LiquidDensity>
<VaporPressure name="Vapour pressure" units="Pa">
  <eqno value="101" />
  <A value="104.3995" />
  <B value="-6791.221" />
  <C value="-12.84602" />
  <D value="0.0000165576" />
  <E value="2" />
  <Tmin units="K" value="132.03" />
  <Tmax units="K" value="511.4" />
  </VaporPressure>
<HeatOfVaporization name="Heat of vaporization" units="J/kmol">
  <eqno value="106" />
  <A value="4.9E+07" />
  <B value="1.281" />
  <C value="-2.4971" />
  <D value="2.499" />
  <E value="-0.86824" />
  <Tmin units="K" value="132" />
  <Tmax units="K" value="491.43" />
  </HeatOfVaporization>
<SolidHeatCapacityCp name="Solid heat capacity" units="J/kmol/K">
  <eqno value="100" />
  <A value="-9903.7" />
  <B value="833.78" />
  <C value="12.723" />
  <D value="-0.19752" />
  <E value="0.00078189" />
  <Tmin units="K" value="11.37" />
  <Tmax units="K" value="121.04" />
  </SolidHeatCapacityCp>
<LiquidHeatCapacityCp name="Liquid heat capacity" units="J/kmol/K">
  <eqno value="16" />
  <A value="135610" />
  <B value="570.7" />
  <C value="1.6392" />
  <D value="0.033591" />
  <E value="-0.000032605" />
  <Tmin units="K" value="132.03" />
  <Tmax units="K" value="342.03" />
  </LiquidHeatCapacityCp>
<IdealGasHeatCapacityCp name="Ideal gas heat capacity" units="J/kmol/K">
  <eqno value="16" />
  <A value="88576" />
  <B value="-789.82" />
  <C value="13.286" />
  <D value="-0.00034537" />
  <E value="1.0091E-07" />
  <Tmin units="K" value="200" />
  <Tmax units="K" value="1500" />
  </IdealGasHeatCapacityCp>
<SecondVirialCoefficient name="Second virial coefficient" units="m3/kmol">
  <eqno value="104" />
  <A value="0.20114" />
  <B value="-212.36" />
  <C value="-29.612" />
  <D value="-2416.2" />
  <E value="3113.2" />
  <Tmin units="K" value="256.58" />
  <Tmax units="K" value="2000" />
  </SecondVirialCoefficient>
<LiquidViscosity name="Liquid viscosity" units="Pa.s">
  <eqno value="101" />
  <A value="-10.864" />
  <B value="787.8" />
  <C value="0.0025561" />
  <D value="-7.6676E-08" />
  <E value="2" />
  <Tmin units="K" value="132" />
  <Tmax units="K" value="342.03" />
  </LiquidViscosity>
<VaporViscosity name="Vapour viscosity" units="Pa.s">
  <eqno value="102" />
  <A value="3.6061E-08" />
  <B value="0.91362" />
  <C value="-8.4415" />
  <D value="1515.2" />
  <Tmin units="K" value="132.03" />
  <Tmax units="K" value="1000" />
  </VaporViscosity>
<LiquidThermalConductivity name="Liquid thermal conductivity" units="W/m/K">
  <eqno value="16" />
  <A value="-0.038625" />
  <B value="3.4165" />
  <C value="-1.4421" />
  <D value="-0.00078927" />
  <E value="-0.0000017176" />
  <Tmin units="K" value="132" />
  <Tmax units="K" value="342.03" />
  </LiquidThermalConductivity>
<VaporThermalConductivity name="Vapour thermal conductivity" units="W/m/K">
  <eqno value="102" />
  <A value="0.000053674" />
  <B value="1.0887" />
  <C value="-86.934" />
  <D value="155330" />
  <Tmin units="K" value="132.03" />
  <Tmax units="K" value="1000" />
  </VaporThermalConductivity>
<SurfaceTension name="Surface tension" units="N/m">
  <eqno value="16" />
  <A value="-0.022589" />
  <B value="9.4677" />
  <C value="-2.677" />
  <D value="-0.0011032" />
  <E value="-0.0000022065" />
  <Tmin units="K" value="132" />
  <Tmax units="K" value="491.43" />
  </SurfaceTension>
<RPPHeatCapacityCp name="Ideal gas heat capacity (RPP)" units="J/kmol/K">
  <eqno value="4" />
  <A value="4117" />
  <B value="473.05" />
  <C value="-0.20948" />
  <D value="0.000030849" />
  <Tmin units="K" value="200" />
  <Tmax units="K" value="1500" />
  </RPPHeatCapacityCp>
<AntoineVaporPressure name="Antoine" units="Pa">
  <eqno value="10" />
  <A value="20.749" />
  <B value="2696.8" />
  <C value="-49.605" />
  <Tmin units="K" value="310.54" />
  <Tmax units="K" value="451.5" />
  </AntoineVaporPressure>
<LiquidViscosityRPS name="Liquid viscosity (RPS)" units="Pa.s">
  <eqno value="12" />
  <A value="-3.3865" />
  <B value="-0.016275" />
  <Tmin units="K" value="132" />
  <Tmax units="K" value="342.03" />
  </LiquidViscosityRPS>
<COSTALDVolume name="COSTLD characteristic volume (V*)" units="m3/kmol" value="0.347104" />
<DiameterLJ name="Lennard Jones diameter" units="m" value="6.713722E-10" />
<EnergyLJ name="Lennard Jones energy" units="K" value="247.3648" />
<RacketParameter name="Rackett parameter" units="_" value="0.256" />
<FullerVolume name="Fuller et al. diffusion volume" units="_" value="123.12" />
<MatthiasCopemanC2 name="Mathias-Copeman C2" units="_" value="0.14884" />
<Parachor name="Parachor" units="kg0.25.m3/s0.5/kmol" value="0.046217" />
<SpecificGravity name="Specific gravity" units="_" value="0.691499" />
<Charge name="Charge" units="_" value="0" />
<CostaldAcentricFactor name="SRK acentric factor" units="_" value="0.287374" />
<WilsonVolume name="Wilson volume" units="m3/kmol" value="0.1234" />
<UniquacR name="UNIQUAC r" units="_" value="4.2677" />
<UniquacQ name="UNIQUAC q" units="_" value="3.643" />
<ApiSrkS2 name="API-SRK s2" units="_" value="0.003966" />
<MatthiasCopemanC3 name="Mathias-Copeman C3" units="_" value="-0.43397" />
<ChaoSeaderAcentricFactor name="Chao-Seader acentric factor" units="_" value="0.287374" />
<ChaoSeaderSolubilityParameter name="Chao-Seader solubility parameter" units="J0.5/m1.5" value="15360" />
<ChaoSeaderLiquidVolume name="Chao-Seader liquid volume" units="m3/kmol" value="0.1234" />
<UnifacVLE name="UNIFAC">
  <group id="1" value="2" />
  <group id="2" value="2" />
  <group id="6" value="1" />
  </UnifacVLE>
<UnifacLLE name="UNIFAC-LLE">
  <group id="1" value="2" />
  <group id="2" value="2" />
  <group id="6" value="1" />
  </UnifacLLE>
<Asog name="ASOG">
  <group id="1" value="2" />
  <group id="2" value="2" />
  <group id="6" value="1" />
  </Asog>
<GCmethod name="PPR78">
  <group id="1" value="2" />
  <group id="2" value="2" />
  <group id="18" value="2" />
  </GCmethod>
<Umr name="UMR">
  <group id="1" value="2" />
  <group id="2" value="2" />
  <group id="6" value="1" />
  </Umr>
<ModifiedUnifac name="Modified UNIFAC">
  <group id="1" value="2" />
  <group id="2" value="2" />
  <group id="6" value="1" />
  </ModifiedUnifac>
<CAS name="CAS number" value="7688-21-3" />
<Smiles name="SMILES" value="C/C=C\CCC" />
</compound>

