<compound>
<LibraryIndex name="Index" value="510" />
<CompoundID name="Name" value="cumene" />
<StructureFormula name="Structure" value="(C6H5)CH(CH3)2" />
<Family name="Family" value="17" />
<CriticalTemperature name="Critical temperature" units="K" value="631" />
<CriticalPressure name="Critical pressure" units="Pa" value="3209000" />
<CriticalVolume name="Critical volume" units="m3/kmol" value="0.4347" />
<CriticalCompressibility name="Critical compressibility factor" units="_" value="0.261" />
<NormalBoilingPointTemperature name="Normal boiling point" units="K" value="425.52" />
<NormalMeltingPointTemperature name="Melting point" units="K" value="177.14" />
<TriplePointTemperature name="Triple point temperature" units="K" value="177.14" />
<TriplePointPressure name="Triple point pressure" units="Pa" value="0.000471313" />
<MolecularWeight name="Molecular weight" units="kg/kmol" value="120.1916" />
<LiquidVolumeAtNormalBoilingPoint name="Liquid molar volume at normal boiling point" units="m3/kmol" value="0.14017" />
<AcentricityFactor name="Acentric factor" units="_" value="0.326" />
<RadiusOfGyration name="Radius of gyration" units="m" value="4.322E-10" />
<SolubilityParameter name="Solubility parameter" units="J0.5/m1.5" value="17420" />
<DipoleMoment name="Dipole moment" units="Coulomb.m" value="1.3E-30" />
<VanDerWaalsVolume name="Van der Waals volume" units="m3/kmol" value="0.07996" />
<VanDerWaalsArea name="Van der Waals area" units="m2/kmol" value="1.014E+09" />
<HeatOfFormation name="IG heat of formation" units="J/kmol" value="4000000" />
<GibbsEnergyOfFormation name="IG Gibbs energy of formation" units="J/kmol" value="1.379E+08" />
<AbsEntropy name="IG absolute entropy" units="J/kmol/K" value="386000" />
<HeatOfFusionAtMeltingPoint name="Heat of fusion at melting point" units="J/kmol" value="7326000" />
<MatthiasCopemanC1 name="Mathias-Copeman C1" units="_" value="0.97464" />
<HeatOfCombustion name="Standard net heat of combustion LHV" units="J/kmol" value="-4.951E+09" />
<SolidDensity name="Solid density" units="kmol/m3">
  <eqno value="2" />
  <A value="10.07" />
  <B value="-0.0062914" />
  <Tmin units="K" value="70.86" />
  <Tmax units="K" value="177.14" />
  </SolidDensity>
<LiquidDensity name="Liquid density" units="kmol/m3">
  <eqno value="105" />
  <A value="0.50221" />
  <B value="0.23722" />
  <C value="631.11" />
  <D value="0.26133" />
  <Tmin units="K" value="153.1" />
  <Tmax units="K" value="631.1" />
  </LiquidDensity>
<VaporPressure name="Vapour pressure" units="Pa">
  <eqno value="101" />
  <A value="118.1491" />
  <B value="-9251.635" />
  <C value="-14.30054" />
  <D value="9.196883E-06" />
  <E value="2" />
  <Tmin units="K" value="177.14" />
  <Tmax units="K" value="631.05" />
  </VaporPressure>
<HeatOfVaporization name="Heat of vaporization" units="J/kmol">
  <eqno value="106" />
  <A value="5.766E+07" />
  <B value="0.38939" />
  <C value="0" />
  <D value="0" />
  <E value="0" />
  <Tmin units="K" value="177.14" />
  <Tmax units="K" value="631" />
  </HeatOfVaporization>
<SolidHeatCapacityCp name="Solid heat capacity" units="J/kmol/K">
  <eqno value="100" />
  <A value="-10800" />
  <B value="1565.7" />
  <C value="-10.507" />
  <D value="0.040966" />
  <E value="-0.000034539" />
  <Tmin units="K" value="10" />
  <Tmax units="K" value="177.16" />
  </SolidHeatCapacityCp>
<LiquidHeatCapacityCp name="Liquid heat capacity" units="J/kmol/K">
  <eqno value="16" />
  <A value="41467" />
  <B value="-297.98" />
  <C value="13.905" />
  <D value="-0.0047724" />
  <E value="0.0000064694" />
  <Tmin units="K" value="177.14" />
  <Tmax units="K" value="500" />
  </LiquidHeatCapacityCp>
<IdealGasHeatCapacityCp name="Ideal gas heat capacity" units="J/kmol/K">
  <eqno value="16" />
  <A value="86134" />
  <B value="-649.19" />
  <C value="13.375" />
  <D value="-0.00027067" />
  <E value="7.9617E-08" />
  <Tmin units="K" value="200" />
  <Tmax units="K" value="1500" />
  </IdealGasHeatCapacityCp>
<SecondVirialCoefficient name="Second virial coefficient" units="m3/kmol">
  <eqno value="104" />
  <A value="0.25813" />
  <B value="-351.41" />
  <C value="-75.368" />
  <D value="-30164" />
  <E value="51230" />
  <Tmin units="K" value="300" />
  <Tmax units="K" value="1893" />
  </SecondVirialCoefficient>
<LiquidViscosity name="Liquid viscosity" units="Pa.s">
  <eqno value="101" />
  <A value="-16.711" />
  <B value="1557.8" />
  <C value="0.70915" />
  <D value="0.000002636" />
  <E value="2" />
  <Tmin units="K" value="200" />
  <Tmax units="K" value="400" />
  </LiquidViscosity>
<VaporViscosity name="Vapour viscosity" units="Pa.s">
  <eqno value="102" />
  <A value="3.9385E-07" />
  <B value="0.59572" />
  <C value="281.33" />
  <D value="-806.82" />
  <Tmin units="K" value="177.14" />
  <Tmax units="K" value="1000" />
  </VaporViscosity>
<LiquidThermalConductivity name="Liquid thermal conductivity" units="W/m/K">
  <eqno value="16" />
  <A value="0.085857" />
  <B value="481.58" />
  <C value="-8.587" />
  <D value="0.025021" />
  <E value="-0.000042138" />
  <Tmin units="K" value="177.14" />
  <Tmax units="K" value="500" />
  </LiquidThermalConductivity>
<VaporThermalConductivity name="Vapour thermal conductivity" units="W/m/K">
  <eqno value="102" />
  <A value="1.6743E-07" />
  <B value="1.8369" />
  <C value="-449.46" />
  <D value="112760" />
  <Tmin units="K" value="177.14" />
  <Tmax units="K" value="1000" />
  </VaporThermalConductivity>
<SurfaceTension name="Surface tension" units="N/m">
  <eqno value="16" />
  <A value="-0.0080328" />
  <B value="47.667" />
  <C value="-3.2474" />
  <D value="0.00083757" />
  <E value="-0.0000055542" />
  <Tmin units="K" value="177.14" />
  <Tmax units="K" value="631" />
  </SurfaceTension>
<RPPHeatCapacityCp name="Ideal gas heat capacity (RPP)" units="J/kmol/K">
  <eqno value="100" />
  <A value="24819" />
  <B value="284.32" />
  <C value="0.99258" />
  <D value="-0.0016755" />
  <E value="0.0000007419" />
  <Tmin units="K" value="50" />
  <Tmax units="K" value="1000" />
  </RPPHeatCapacityCp>
<RelativeStaticPermittivity name="Relative static permittivity" units="_">
  <eqno value="120" />
  <A value="-1.796538" />
  <B value="-1200" />
  <C value="-7.2" />
  <Tmin units="K" value="274.15" />
  <Tmax units="K" value="444.15" />
  </RelativeStaticPermittivity>
<AntoineVaporPressure name="Antoine" units="Pa">
  <eqno value="10" />
  <A value="20.498" />
  <B value="3116.8" />
  <C value="-78.092" />
  <Tmin units="K" value="380.45" />
  <Tmax units="K" value="562.1" />
  </AntoineVaporPressure>
<LiquidViscosityRPS name="Liquid viscosity (RPS)" units="Pa.s">
  <eqno value="13" />
  <A value="2.7243" />
  <B value="-0.05195" />
  <C value="0.000062446" />
  <Tmin units="K" value="200" />
  <Tmax units="K" value="400" />
  </LiquidViscosityRPS>
<COSTALDVolume name="COSTLD characteristic volume (V*)" units="m3/kmol" value="0.42713" />
<DiameterLJ name="Lennard Jones diameter" units="m" value="7.084995E-10" />
<EnergyLJ name="Lennard Jones energy" units="K" value="327.2265" />
<RacketParameter name="Rackett parameter" units="_" value="0.2617" />
<FullerVolume name="Fuller et al. diffusion volume" units="_" value="152.52" />
<MatthiasCopemanC2 name="Mathias-Copeman C2" units="_" value="0" />
<Parachor name="Parachor" units="kg0.25.m3/s0.5/kmol" value="0.0567" />
<SpecificGravity name="Specific gravity" units="_" value="0.864757" />
<Charge name="Charge" units="_" value="0" />
<CostaldAcentricFactor name="SRK acentric factor" units="_" value="0.32769" />
<WilsonVolume name="Wilson volume" units="m3/kmol" value="0.139854" />
<UniquacR name="UNIQUAC r" units="_" value="5.2708" />
<UniquacQ name="UNIQUAC q" units="_" value="4.044" />
<ApiSrkS2 name="API-SRK s2" units="_" value="-0.008698" />
<MatthiasCopemanC3 name="Mathias-Copeman C3" units="_" value="0" />
<ChaoSeaderAcentricFactor name="Chao-Seader acentric factor" units="_" value="0.3353" />
<ChaoSeaderSolubilityParameter name="Chao-Seader solubility parameter" units="J0.5/m1.5" value="17436.2" />
<ChaoSeaderLiquidVolume name="Chao-Seader liquid volume" units="m3/kmol" value="0.139854" />
<UnifacVLE name="UNIFAC">
  <group id="1" value="2" />
  <group id="10" value="5" />
  <group id="14" value="1" />
  </UnifacVLE>
<UnifacLLE name="UNIFAC-LLE">
  <group id="1" value="2" />
  <group id="9" value="5" />
  <group id="13" value="1" />
  </UnifacLLE>
<Asog name="ASOG">
  <group id="1" value="2" />
  <group id="3" value="1" />
  <group id="10" value="5" />
  <group id="11" value="1" />
  </Asog>
<GCmethod name="PPR78">
  <group id="1" value="2" />
  <group id="3" value="1" />
  <group id="7" value="5" />
  <group id="8" value="1" />
  </GCmethod>
<Umr name="UMR">
  <group id="1" value="2" />
  <group id="10" value="5" />
  <group id="14" value="1" />
  </Umr>
<ModifiedUnifac name="Modified UNIFAC">
  <group id="1" value="2" />
  <group id="9" value="5" />
  <group id="13" value="1" />
  </ModifiedUnifac>
<CAS name="CAS number" value="98-82-8" />
<Smiles name="SMILES" value="c1(C(C)C)ccccc1" />
</compound>

