<compound>
<LibraryIndex name="Index" value="1406" />
<CompoundID name="Name" value="di-sec-butyl ether" />
<StructureFormula name="Structure" value="C2H5(CH3)CHOCH(CH3)C2H5" />
<Family name="Family" value="61" />
<CriticalTemperature name="Critical temperature" units="K" value="562" />
<CriticalPressure name="Critical pressure" units="Pa" value="2556000" />
<CriticalVolume name="Critical volume" units="m3/kmol" value="0.487" />
<CriticalCompressibility name="Critical compressibility factor" units="_" value="0.269" />
<NormalBoilingPointTemperature name="Normal boiling point" units="K" value="394.2" />
<NormalMeltingPointTemperature name="Melting point" units="K" value="173.15" />
<TriplePointTemperature name="Triple point temperature" units="K" value="173.15" />
<TriplePointPressure name="Triple point pressure" units="Pa" value="0.0027863" />
<MolecularWeight name="Molecular weight" units="kg/kmol" value="130.2279" />
<LiquidVolumeAtNormalBoilingPoint name="Liquid molar volume at normal boiling point" units="m3/kmol" value="0.171577" />
<AcentricityFactor name="Acentric factor" units="_" value="0.329" />
<RadiusOfGyration name="Radius of gyration" units="m" value="4.373E-10" />
<SolubilityParameter name="Solubility parameter" units="J0.5/m1.5" value="14950" />
<VanDerWaalsVolume name="Van der Waals volume" units="m3/kmol" value="0.0924" />
<VanDerWaalsArea name="Van der Waals area" units="m2/kmol" value="1.292E+09" />
<HeatOfFormation name="IG heat of formation" units="J/kmol" value="-3.609E+08" />
<GibbsEnergyOfFormation name="IG Gibbs energy of formation" units="J/kmol" value="-1.157E+08" />
<AbsEntropy name="IG absolute entropy" units="J/kmol/K" value="501000" />
<HeatOfFusionAtMeltingPoint name="Heat of fusion at melting point" units="J/kmol" value="0" />
<HeatOfCombustion name="Standard net heat of combustion LHV" units="J/kmol" value="-4.9233E+09" />
<SolidDensity name="Solid density" units="kmol/m3">
  <eqno value="100" />
  <A value="8.4542" />
  <B value="-0.0061032" />
  <C value="0" />
  <D value="0" />
  <E value="0" />
  <Tmin units="K" value="69.26" />
  <Tmax units="K" value="173.15" />
  </SolidDensity>
<LiquidDensity name="Liquid density" units="kmol/m3">
  <eqno value="105" />
  <A value="0.038135" />
  <B value="0.072155" />
  <C value="562" />
  <D value="0.11862" />
  <Tmin units="K" value="173.15" />
  <Tmax units="K" value="559" />
  </LiquidDensity>
<VaporPressure name="Vapour pressure" units="Pa">
  <eqno value="101" />
  <A value="102.5292" />
  <B value="-8146.755" />
  <C value="-11.97808" />
  <D value="8.058954E-06" />
  <E value="2" />
  <Tmin units="K" value="173.15" />
  <Tmax units="K" value="560" />
  </VaporPressure>
<HeatOfVaporization name="Heat of vaporization" units="J/kmol">
  <eqno value="106" />
  <A value="5.5999E+07" />
  <B value="0.34375" />
  <C value="0.18962" />
  <D value="-0.14755" />
  <E value="-0.0040987" />
  <Tmin units="K" value="173.15" />
  <Tmax units="K" value="559" />
  </HeatOfVaporization>
<SolidHeatCapacityCp name="Solid heat capacity" units="J/kmol/K">
  <eqno value="1" />
  <A value="236620" />
  <Tmin units="K" value="0" />
  <Tmax units="K" value="562" />
  </SolidHeatCapacityCp>
<LiquidHeatCapacityCp name="Liquid heat capacity" units="J/kmol/K">
  <eqno value="16" />
  <A value="102180" />
  <B value="-37.551" />
  <C value="10.606" />
  <D value="0.0064949" />
  <E value="-0.0000048029" />
  <Tmin units="K" value="300" />
  <Tmax units="K" value="420" />
  </LiquidHeatCapacityCp>
<IdealGasHeatCapacityCp name="Ideal gas heat capacity" units="J/kmol/K">
  <eqno value="16" />
  <A value="94528" />
  <B value="-497.39" />
  <C value="13.241" />
  <D value="0.000057744" />
  <E value="-1.2606E-09" />
  <Tmin units="K" value="173.15" />
  <Tmax units="K" value="1200" />
  </IdealGasHeatCapacityCp>
<SecondVirialCoefficient name="Second virial coefficient" units="m3/kmol">
  <eqno value="104" />
  <A value="0.31867" />
  <B value="-341.87" />
  <C value="-60.467" />
  <D value="-9470.7" />
  <E value="6002.4" />
  <Tmin units="K" value="281" />
  <Tmax units="K" value="1500" />
  </SecondVirialCoefficient>
<LiquidViscosity name="Liquid viscosity" units="Pa.s">
  <eqno value="101" />
  <A value="-10.318" />
  <B value="1230.4" />
  <C value="-0.20919" />
  <D value="4.9411E-07" />
  <E value="2" />
  <Tmin units="K" value="173.15" />
  <Tmax units="K" value="450" />
  </LiquidViscosity>
<VaporViscosity name="Vapour viscosity" units="Pa.s">
  <eqno value="102" />
  <A value="1.1864E-07" />
  <B value="0.74861" />
  <C value="137.78" />
  <D value="-4500.8" />
  <Tmin units="K" value="173.15" />
  <Tmax units="K" value="1000" />
  </VaporViscosity>
<LiquidThermalConductivity name="Liquid thermal conductivity" units="W/m/K">
  <eqno value="16" />
  <A value="0.027499" />
  <B value="27.604" />
  <C value="-2.2754" />
  <D value="0.00032105" />
  <E value="-0.0000044406" />
  <Tmin units="K" value="167.7" />
  <Tmax units="K" value="453.15" />
  </LiquidThermalConductivity>
<VaporThermalConductivity name="Vapour thermal conductivity" units="W/m/K">
  <eqno value="102" />
  <A value="0.00016749" />
  <B value="0.96101" />
  <C value="656.84" />
  <D value="-691.7" />
  <Tmin units="K" value="173.15" />
  <Tmax units="K" value="1000" />
  </VaporThermalConductivity>
<SurfaceTension name="Surface tension" units="N/m">
  <eqno value="16" />
  <A value="-0.010066" />
  <B value="43.992" />
  <C value="-3.3461" />
  <D value="0.00062354" />
  <E value="-0.0000053912" />
  <Tmin units="K" value="173.15" />
  <Tmax units="K" value="559" />
  </SurfaceTension>
<RPPHeatCapacityCp name="Ideal gas heat capacity (RPP)" units="J/kmol/K">
  <eqno value="4" />
  <A value="-28426" />
  <B value="952.53" />
  <C value="-0.64748" />
  <D value="0.00017987" />
  <Tmin units="K" value="173.15" />
  <Tmax units="K" value="1200" />
  </RPPHeatCapacityCp>
<AntoineVaporPressure name="Antoine" units="Pa">
  <eqno value="10" />
  <A value="20.954" />
  <B value="3141.6" />
  <C value="-61.002" />
  <Tmin units="K" value="350" />
  <Tmax units="K" value="500" />
  </AntoineVaporPressure>
<LiquidViscosityRPS name="Liquid viscosity (RPS)" units="Pa.s">
  <eqno value="12" />
  <A value="-1.7138" />
  <B value="-0.01814" />
  <Tmin units="K" value="173.15" />
  <Tmax units="K" value="394.2" />
  </LiquidViscosityRPS>
<COSTALDVolume name="COSTLD characteristic volume (V*)" units="m3/kmol" value="0.509471" />
<DiameterLJ name="Lennard Jones diameter" units="m" value="7.096626E-10" />
<EnergyLJ name="Lennard Jones energy" units="K" value="324.9059" />
<RacketParameter name="Rackett parameter" units="_" value="0.269" />
<FullerVolume name="Fuller et al. diffusion volume" units="_" value="174.89" />
<Parachor name="Parachor" units="kg0.25.m3/s0.5/kmol" value="0.0642045" />
<SpecificGravity name="Specific gravity" units="_" value="0.769756" />
<Charge name="Charge" units="_" value="0" />
<CostaldAcentricFactor name="SRK acentric factor" units="_" value="0.329" />
<WilsonVolume name="Wilson volume" units="m3/kmol" value="0.171577" />
<UniquacR name="UNIQUAC r" units="_" value="6.0909" />
<UniquacQ name="UNIQUAC q" units="_" value="5.168" />
<ChaoSeaderAcentricFactor name="Chao-Seader acentric factor" units="_" value="0.329" />
<ChaoSeaderSolubilityParameter name="Chao-Seader solubility parameter" units="J0.5/m1.5" value="14950" />
<ChaoSeaderLiquidVolume name="Chao-Seader liquid volume" units="m3/kmol" value="0.171577" />
<UnifacVLE name="UNIFAC">
  <group id="1" value="4" />
  <group id="2" value="2" />
  <group id="3" value="1" />
  <group id="27" value="1" />
  </UnifacVLE>
<UnifacLLE name="UNIFAC-LLE">
  <group id="1" value="4" />
  <group id="2" value="2" />
  <group id="3" value="1" />
  <group id="29" value="1" />
  </UnifacLLE>
<Asog name="ASOG">
  <group id="1" value="4" />
  <group id="2" value="2" />
  <group id="3" value="2" />
  <group id="19" value="1" />
  </Asog>
<Umr name="UMR">
  <group id="1" value="4" />
  <group id="2" value="2" />
  <group id="3" value="1" />
  <group id="27" value="1" />
  </Umr>
<ModifiedUnifac name="Modified UNIFAC">
  <group id="1" value="4" />
  <group id="2" value="2" />
  <group id="3" value="1" />
  <group id="26" value="1" />
  </ModifiedUnifac>
<CAS name="CAS number" value="6863-58-7" />
<Smiles name="SMILES" value="CCC(C)OC(C)CC" />
</compound>

