<compound>
<LibraryIndex name="Index" value="3801" />
<CompoundID name="Name" value="di-tert-butyl disulfide" />
<StructureFormula name="Structure" value="(CH3)3CS2C(CH3)3" />
<Family name="Family" value="42" />
<CriticalTemperature name="Critical temperature" units="K" value="689.7" />
<CriticalPressure name="Critical pressure" units="Pa" value="3159000" />
<CriticalVolume name="Critical volume" units="m3/kmol" value="0.518" />
<CriticalCompressibility name="Critical compressibility factor" units="_" value="0.285" />
<NormalBoilingPointTemperature name="Normal boiling point" units="K" value="473.6" />
<NormalMeltingPointTemperature name="Melting point" units="K" value="268.2" />
<TriplePointTemperature name="Triple point temperature" units="K" value="268.2" />
<TriplePointPressure name="Triple point pressure" units="Pa" value="9.12" />
<MolecularWeight name="Molecular weight" units="kg/kmol" value="178.3585" />
<LiquidVolumeAtNormalBoilingPoint name="Liquid molar volume at normal boiling point" units="m3/kmol" value="0.1947" />
<AcentricityFactor name="Acentric factor" units="_" value="0.402005" />
<RadiusOfGyration name="Radius of gyration" units="m" value="4.686E-10" />
<SolubilityParameter name="Solubility parameter" units="J0.5/m1.5" value="15680" />
<DipoleMoment name="Dipole moment" units="Coulomb.m" value="6.2E-30" />
<VanDerWaalsVolume name="Van der Waals volume" units="m3/kmol" value="0.1126" />
<VanDerWaalsArea name="Van der Waals area" units="m2/kmol" value="1.457E+09" />
<HeatOfFormation name="IG heat of formation" units="J/kmol" value="-1.998E+08" />
<GibbsEnergyOfFormation name="IG Gibbs energy of formation" units="J/kmol" value="3.427E+07" />
<AbsEntropy name="IG absolute entropy" units="J/kmol/K" value="500100" />
<HeatOfFusionAtMeltingPoint name="Heat of fusion at melting point" units="J/kmol" value="1.31E+07" />
<HeatOfCombustion name="Standard net heat of combustion LHV" units="J/kmol" value="-5.665E+09" />
<SolidDensity name="Solid density" units="kmol/m3">
  <eqno value="100" />
  <A value="6.7119" />
  <B value="-0.0031282" />
  <C value="0" />
  <D value="0" />
  <E value="0" />
  <Tmin units="K" value="107.28" />
  <Tmax units="K" value="268.2" />
  </SolidDensity>
<LiquidDensity name="Liquid density" units="kmol/m3">
  <eqno value="105" />
  <A value="0.60778" />
  <B value="0.31522" />
  <C value="689.7" />
  <D value="0.2884" />
  <Tmin units="K" value="268.2" />
  <Tmax units="K" value="689.7" />
  </LiquidDensity>
<VaporPressure name="Vapour pressure" units="Pa">
  <eqno value="101" />
  <A value="113.63" />
  <B value="-10180" />
  <C value="-13.332" />
  <D value="0.0000068178" />
  <E value="2" />
  <Tmin units="K" value="268.2" />
  <Tmax units="K" value="689.7" />
  </VaporPressure>
<HeatOfVaporization name="Heat of vaporization" units="J/kmol">
  <eqno value="106" />
  <A value="5.0039E+07" />
  <B value="-1.4285" />
  <C value="5.5884" />
  <D value="-6.8503" />
  <E value="3.0089" />
  <Tmin units="K" value="268.2" />
  <Tmax units="K" value="689.7" />
  </HeatOfVaporization>
<SolidHeatCapacityCp name="Solid heat capacity" units="J/kmol/K">
  <eqno value="102" />
  <A value="3730" />
  <B value="0.79267" />
  <C value="0" />
  <D value="0" />
  <Tmin units="K" value="50" />
  <Tmax units="K" value="268.2" />
  </SolidHeatCapacityCp>
<LiquidHeatCapacityCp name="Liquid heat capacity" units="J/kmol/K">
  <eqno value="16" />
  <A value="273850" />
  <B value="-799.3" />
  <C value="13.794" />
  <D value="-0.001521" />
  <E value="0.0000014598" />
  <Tmin units="K" value="268.2" />
  <Tmax units="K" value="689.7" />
  </LiquidHeatCapacityCp>
<IdealGasHeatCapacityCp name="Ideal gas heat capacity" units="J/kmol/K">
  <eqno value="16" />
  <A value="171300" />
  <B value="-806" />
  <C value="13.98" />
  <D value="-0.00069575" />
  <E value="1.6372E-07" />
  <Tmin units="K" value="273" />
  <Tmax units="K" value="1500" />
  </IdealGasHeatCapacityCp>
<SecondVirialCoefficient name="Second virial coefficient" units="m3/kmol">
  <eqno value="104" />
  <A value="0.3107" />
  <B value="-418.41" />
  <C value="-109.87" />
  <D value="-34733" />
  <E value="-2236.6" />
  <Tmin units="K" value="344.85" />
  <Tmax units="K" value="1500" />
  </SecondVirialCoefficient>
<LiquidViscosity name="Liquid viscosity" units="Pa.s">
  <eqno value="101" />
  <A value="-10.435" />
  <B value="1172.7" />
  <C value="0" />
  <D value="0" />
  <E value="0" />
  <Tmin units="K" value="268.2" />
  <Tmax units="K" value="473.65" />
  </LiquidViscosity>
<VaporViscosity name="Vapour viscosity" units="Pa.s">
  <eqno value="102" />
  <A value="0.0000001005" />
  <B value="0.79652" />
  <C value="148.51" />
  <D value="-7648.2" />
  <Tmin units="K" value="268.2" />
  <Tmax units="K" value="1000" />
  </VaporViscosity>
<LiquidThermalConductivity name="Liquid thermal conductivity" units="W/m/K">
  <eqno value="16" />
  <A value="-0.019283" />
  <B value="-53.989" />
  <C value="-1.1745" />
  <D value="-0.0017696" />
  <E value="-1.3435E-07" />
  <Tmin units="K" value="268.2" />
  <Tmax units="K" value="473.65" />
  </LiquidThermalConductivity>
<VaporThermalConductivity name="Vapour thermal conductivity" units="W/m/K">
  <eqno value="102" />
  <A value="0.00018425" />
  <B value="0.91582" />
  <C value="448.35" />
  <D value="58650" />
  <Tmin units="K" value="268.2" />
  <Tmax units="K" value="1000" />
  </VaporThermalConductivity>
<SurfaceTension name="Surface tension" units="N/m">
  <eqno value="16" />
  <A value="-0.12216" />
  <B value="-29.058" />
  <C value="-1.4793" />
  <D value="-0.001294" />
  <E value="6.5007E-07" />
  <Tmin units="K" value="268.2" />
  <Tmax units="K" value="689.7" />
  </SurfaceTension>
<RPPHeatCapacityCp name="Ideal gas heat capacity (RPP)" units="J/kmol/K">
  <eqno value="4" />
  <A value="-7365.9" />
  <B value="999.61" />
  <C value="-0.67127" />
  <D value="0.00016012" />
  <Tmin units="K" value="273" />
  <Tmax units="K" value="1500" />
  </RPPHeatCapacityCp>
<AntoineVaporPressure name="Antoine" units="Pa">
  <eqno value="10" />
  <A value="21.558" />
  <B value="4258.7" />
  <C value="-49.2" />
  <Tmin units="K" value="423.49" />
  <Tmax units="K" value="600.96" />
  </AntoineVaporPressure>
<COSTALDVolume name="COSTLD characteristic volume (V*)" units="m3/kmol" value="0.638704" />
<DiameterLJ name="Lennard Jones diameter" units="m" value="6.758875E-10" />
<EnergyLJ name="Lennard Jones energy" units="K" value="490.9247" />
<RacketParameter name="Rackett parameter" units="_" value="0.285" />
<FullerVolume name="Fuller et al. diffusion volume" units="_" value="148.779" />
<Parachor name="Parachor" units="kg0.25.m3/s0.5/kmol" value="0.0758034" />
<SpecificGravity name="Specific gravity" units="_" value="0.922" />
<Charge name="Charge" units="_" value="0" />
<CostaldAcentricFactor name="SRK acentric factor" units="_" value="0.402005" />
<WilsonVolume name="Wilson volume" units="m3/kmol" value="0.1947" />
<UniquacR name="UNIQUAC r" units="_" value="5.9221" />
<UniquacQ name="UNIQUAC q" units="_" value="4.972" />
<ChaoSeaderAcentricFactor name="Chao-Seader acentric factor" units="_" value="0.402005" />
<ChaoSeaderSolubilityParameter name="Chao-Seader solubility parameter" units="J0.5/m1.5" value="15680" />
<ChaoSeaderLiquidVolume name="Chao-Seader liquid volume" units="m3/kmol" value="0.1947" />
<ModifiedUnifac name="Modified UNIFAC">
  <group id="1" value="6" />
  <group id="4" value="2" />
  <group id="201" value="1" />
  </ModifiedUnifac>
<CAS name="CAS number" value="110-06-5" />
<Smiles name="SMILES" value="CC(C)(C)SSC(C)(C)C" />
</compound>

