<compound>
<LibraryIndex name="Index" value="2854" />
<CompoundID name="Name" value="diacetone alcohol" />
<StructureFormula name="Structure" value="(CH3)2C(OH)CH2COCH3" />
<Family name="Family" value="45" />
<CriticalTemperature name="Critical temperature" units="K" value="606" />
<CriticalPressure name="Critical pressure" units="Pa" value="3500000" />
<CriticalVolume name="Critical volume" units="m3/kmol" value="0.387" />
<CriticalCompressibility name="Critical compressibility factor" units="_" value="0.277" />
<NormalBoilingPointTemperature name="Normal boiling point" units="K" value="437.594" />
<NormalMeltingPointTemperature name="Melting point" units="K" value="228.95" />
<TriplePointTemperature name="Triple point temperature" units="K" value="229.15" />
<TriplePointPressure name="Triple point pressure" units="Pa" value="0.301061" />
<MolecularWeight name="Molecular weight" units="kg/kmol" value="116.158" />
<LiquidVolumeAtNormalBoilingPoint name="Liquid molar volume at normal boiling point" units="m3/kmol" value="0.124336" />
<AcentricityFactor name="Acentric factor" units="_" value="0.768352" />
<RadiusOfGyration name="Radius of gyration" units="m" value="3.905E-10" />
<SolubilityParameter name="Solubility parameter" units="J0.5/m1.5" value="19530" />
<DipoleMoment name="Dipole moment" units="Coulomb.m" value="1.08E-29" />
<VanDerWaalsVolume name="Van der Waals volume" units="m3/kmol" value="0.0743099" />
<VanDerWaalsArea name="Van der Waals area" units="m2/kmol" value="1.077E+09" />
<HeatOfFormation name="IG heat of formation" units="J/kmol" value="-5.429E+08" />
<GibbsEnergyOfFormation name="IG Gibbs energy of formation" units="J/kmol" value="-2.886E+08" />
<AbsEntropy name="IG absolute entropy" units="J/kmol/K" value="438500" />
<HeatOfFusionAtMeltingPoint name="Heat of fusion at melting point" units="J/kmol" value="6040000" />
<HeatOfCombustion name="Standard net heat of combustion LHV" units="J/kmol" value="-3.2807E+09" />
<SolidDensity name="Solid density" units="kmol/m3">
  <eqno value="100" />
  <A value="10.922" />
  <B value="-0.0059579" />
  <C value="0" />
  <D value="0" />
  <E value="0" />
  <Tmin units="K" value="91.66" />
  <Tmax units="K" value="229.15" />
  </SolidDensity>
<LiquidDensity name="Liquid density" units="kmol/m3">
  <eqno value="105" />
  <A value="0.67266" />
  <B value="0.26031" />
  <C value="606" />
  <D value="0.2511" />
  <Tmin units="K" value="229.15" />
  <Tmax units="K" value="606" />
  </LiquidDensity>
<VaporPressure name="Vapour pressure" units="Pa">
  <eqno value="101" />
  <A value="162.02" />
  <B value="-10531" />
  <C value="-22.671" />
  <D value="0.025918" />
  <E value="1" />
  <Tmin units="K" value="229.15" />
  <Tmax units="K" value="606" />
  </VaporPressure>
<HeatOfVaporization name="Heat of vaporization" units="J/kmol">
  <eqno value="106" />
  <A value="5.6552E+07" />
  <B value="0.18523" />
  <C value="0" />
  <D value="0" />
  <E value="0" />
  <Tmin units="K" value="229.15" />
  <Tmax units="K" value="606" />
  </HeatOfVaporization>
<SolidHeatCapacityCp name="Solid heat capacity" units="J/kmol/K">
  <eqno value="102" />
  <A value="2190" />
  <B value="0.79267" />
  <C value="0" />
  <D value="0" />
  <Tmin units="K" value="50" />
  <Tmax units="K" value="229.15" />
  </SolidHeatCapacityCp>
<LiquidHeatCapacityCp name="Liquid heat capacity" units="J/kmol/K">
  <eqno value="100" />
  <A value="205610" />
  <B value="-355.2" />
  <C value="1.3323" />
  <D value="0" />
  <E value="0" />
  <Tmin units="K" value="229.15" />
  <Tmax units="K" value="441.05" />
  </LiquidHeatCapacityCp>
<IdealGasHeatCapacityCp name="Ideal gas heat capacity" units="J/kmol/K">
  <eqno value="16" />
  <A value="73029.71" />
  <B value="-500" />
  <C value="12.96833" />
  <D value="0" />
  <E value="0" />
  <Tmin units="K" value="255" />
  <Tmax units="K" value="1500" />
  </IdealGasHeatCapacityCp>
<SecondVirialCoefficient name="Second virial coefficient" units="m3/kmol">
  <eqno value="104" />
  <A value="0.27637" />
  <B value="-266.87" />
  <C value="-5.9923E+07" />
  <D value="-6.3102E+20" />
  <E value="-3.2105E+23" />
  <Tmin units="K" value="303" />
  <Tmax units="K" value="1500" />
  </SecondVirialCoefficient>
<LiquidViscosity name="Liquid viscosity" units="Pa.s">
  <eqno value="101" />
  <A value="155.57" />
  <B value="-8726.4" />
  <C value="-23.803" />
  <D value="2.7502E+10" />
  <E value="-4" />
  <Tmin units="K" value="223.65" />
  <Tmax units="K" value="484.8" />
  </LiquidViscosity>
<VaporViscosity name="Vapour viscosity" units="Pa.s">
  <eqno value="102" />
  <A value="2.8481E-07" />
  <B value="0.6714" />
  <C value="296.47" />
  <D value="0" />
  <Tmin units="K" value="229.15" />
  <Tmax units="K" value="1000" />
  </VaporViscosity>
<LiquidThermalConductivity name="Liquid thermal conductivity" units="W/m/K">
  <eqno value="100" />
  <A value="0.2189" />
  <B value="-0.0002621" />
  <C value="0" />
  <D value="0" />
  <E value="0" />
  <Tmin units="K" value="229.15" />
  <Tmax units="K" value="481.8" />
  </LiquidThermalConductivity>
<VaporThermalConductivity name="Vapour thermal conductivity" units="W/m/K">
  <eqno value="102" />
  <A value="0.0001539" />
  <B value="0.9825" />
  <C value="704.3" />
  <D value="0" />
  <Tmin units="K" value="441" />
  <Tmax units="K" value="1000" />
  </VaporThermalConductivity>
<SurfaceTension name="Surface tension" units="N/m">
  <eqno value="106" />
  <A value="0.062884" />
  <B value="1.1063" />
  <C value="0" />
  <D value="0" />
  <E value="0" />
  <Tmin units="K" value="229.15" />
  <Tmax units="K" value="606" />
  </SurfaceTension>
<RPPHeatCapacityCp name="Ideal gas heat capacity (RPP)" units="J/kmol/K">
  <eqno value="100" />
  <A value="29100.65" />
  <B value="0" />
  <C value="0" />
  <D value="0" />
  <E value="0" />
  <Tmin units="K" value="0" />
  <Tmax units="K" value="20000" />
  </RPPHeatCapacityCp>
<AntoineVaporPressure name="Antoine" units="Pa">
  <eqno value="10" />
  <A value="21.52821" />
  <B value="3721.282" />
  <C value="-69.67593" />
  <Tmin units="K" value="280" />
  <Tmax units="K" value="606" />
  </AntoineVaporPressure>
<COSTALDVolume name="COSTLD characteristic volume (V*)" units="m3/kmol" value="0.443326" />
<DiameterLJ name="Lennard Jones diameter" units="m" value="6.34609E-10" />
<EnergyLJ name="Lennard Jones energy" units="K" value="389.3257" />
<RacketParameter name="Rackett parameter" units="_" value="0.277" />
<FullerVolume name="Fuller et al. diffusion volume" units="_" value="115.966" />
<Parachor name="Parachor" units="kg0.25.m3/s0.5/kmol" value="0.0518869" />
<SpecificGravity name="Specific gravity" units="_" value="0.943302" />
<Charge name="Charge" units="_" value="0" />
<CostaldAcentricFactor name="SRK acentric factor" units="_" value="0.768352" />
<WilsonVolume name="Wilson volume" units="m3/kmol" value="0.124336" />
<UniquacR name="UNIQUAC r" units="_" value="5.3685" />
<UniquacQ name="UNIQUAC q" units="_" value="4.924" />
<UniquacQP name="UNIQUAC q'" units="_" value="4.924" />
<ApiSrkS1 name="API-SRK s1" units="_" value="1.585166" />
<ApiSrkS2 name="API-SRK s2" units="_" value="0" />
<ChaoSeaderAcentricFactor name="Chao-Seader acentric factor" units="_" value="0.768352" />
<ChaoSeaderSolubilityParameter name="Chao-Seader solubility parameter" units="J0.5/m1.5" value="19530" />
<ChaoSeaderLiquidVolume name="Chao-Seader liquid volume" units="m3/kmol" value="0.124336" />
<UnifacVLE name="UNIFAC">
  <group id="1" value="2" />
  <group id="2" value="1" />
  <group id="4" value="1" />
  <group id="15" value="1" />
  <group id="19" value="1" />
  </UnifacVLE>
<UnifacLLE name="UNIFAC-LLE">
  <group id="1" value="2" />
  <group id="2" value="1" />
  <group id="4" value="1" />
  <group id="14" value="1" />
  <group id="19" value="1" />
  </UnifacLLE>
<Asog name="ASOG">
  <group id="1" value="3" />
  <group id="2" value="1" />
  <group id="4" value="1" />
  <group id="15" value="1" />
  <group id="18" value="1" />
  </Asog>
<Umr name="UMR">
  <group id="1" value="2" />
  <group id="2" value="1" />
  <group id="4" value="1" />
  <group id="15" value="1" />
  <group id="19" value="1" />
  </Umr>
<ModifiedUnifac name="Modified UNIFAC">
  <group id="1" value="2" />
  <group id="2" value="1" />
  <group id="4" value="1" />
  <group id="18" value="1" />
  <group id="82" value="1" />
  </ModifiedUnifac>
<CAS name="CAS number" value="123-42-2" />
</compound>

