<compound>
<LibraryIndex name="Index" value="1202" />
<CompoundID name="Name" value="diethylene glycol" />
<StructureFormula name="Structure" value="HOCH2CH2OCH2CH2OH" />
<Family name="Family" value="49" />
<CriticalTemperature name="Critical temperature" units="K" value="744.6" />
<CriticalPressure name="Critical pressure" units="Pa" value="4600000" />
<CriticalVolume name="Critical volume" units="m3/kmol" value="0.312" />
<CriticalCompressibility name="Critical compressibility factor" units="_" value="0.232" />
<NormalBoilingPointTemperature name="Normal boiling point" units="K" value="517.95" />
<NormalMeltingPointTemperature name="Melting point" units="K" value="262.7" />
<TriplePointTemperature name="Triple point temperature" units="K" value="262.7" />
<TriplePointPressure name="Triple point pressure" units="Pa" value="0.00319709" />
<MolecularWeight name="Molecular weight" units="kg/kmol" value="106.1204" />
<LiquidVolumeAtNormalBoilingPoint name="Liquid molar volume at normal boiling point" units="m3/kmol" value="0.0952681" />
<AcentricityFactor name="Acentric factor" units="_" value="0.622105" />
<RadiusOfGyration name="Radius of gyration" units="m" value="3.739E-10" />
<SolubilityParameter name="Solubility parameter" units="J0.5/m1.5" value="28920" />
<DipoleMoment name="Dipole moment" units="Coulomb.m" value="8.41E-30" />
<VanDerWaalsVolume name="Van der Waals volume" units="m3/kmol" value="0.0607" />
<VanDerWaalsArea name="Van der Waals area" units="m2/kmol" value="8.92E+08" />
<HeatOfFormation name="IG heat of formation" units="J/kmol" value="-5.464E+08" />
<GibbsEnergyOfFormation name="IG Gibbs energy of formation" units="J/kmol" value="-3.84E+08" />
<AbsEntropy name="IG absolute entropy" units="J/kmol/K" value="440000" />
<HeatOfFusionAtMeltingPoint name="Heat of fusion at melting point" units="J/kmol" value="1.3481E+07" />
<MatthiasCopemanC1 name="Mathias-Copeman C1" units="_" value="3.1418" />
<HeatOfCombustion name="Standard net heat of combustion LHV" units="J/kmol" value="-2.155E+09" />
<SolidDensity name="Solid density" units="kmol/m3">
  <eqno value="2" />
  <A value="13.607" />
  <B value="-0.0056939" />
  <Tmin units="K" value="105.08" />
  <Tmax units="K" value="262.7" />
  </SolidDensity>
<LiquidDensity name="Liquid density" units="kmol/m3">
  <eqno value="105" />
  <A value="0.81894" />
  <B value="0.25823" />
  <C value="744.6" />
  <D value="0.23979" />
  <Tmin units="K" value="262.7" />
  <Tmax units="K" value="719.24" />
  </LiquidDensity>
<VaporPressure name="Vapour pressure" units="Pa">
  <eqno value="101" />
  <A value="46.26595" />
  <B value="-10205.15" />
  <C value="-2.102723" />
  <D value="-7.036466E-06" />
  <E value="2" />
  <Tmin units="K" value="262.7" />
  <Tmax units="K" value="744.6" />
  </VaporPressure>
<HeatOfVaporization name="Heat of vaporization" units="J/kmol">
  <eqno value="106" />
  <A value="1.0853E+08" />
  <B value="-0.00876655" />
  <C value="1.770951" />
  <D value="-1.359893" />
  <E value="-0.0210292" />
  <Tmin units="K" value="262.7" />
  <Tmax units="K" value="744.6" />
  </HeatOfVaporization>
<SolidHeatCapacityCp name="Solid heat capacity" units="J/kmol/K">
  <eqno value="100" />
  <A value="5791.1" />
  <B value="739.7" />
  <C value="-1.4583" />
  <D value="0.003773" />
  <E value="-0.0000043193" />
  <Tmin units="K" value="50" />
  <Tmax units="K" value="262.7" />
  </SolidHeatCapacityCp>
<LiquidHeatCapacityCp name="Liquid heat capacity" units="J/kmol/K">
  <eqno value="16" />
  <A value="188290" />
  <B value="227.63" />
  <C value="5.7157" />
  <D value="0.020545" />
  <E value="-0.000018798" />
  <Tmin units="K" value="262.7" />
  <Tmax units="K" value="513.15" />
  </LiquidHeatCapacityCp>
<IdealGasHeatCapacityCp name="Ideal gas heat capacity" units="J/kmol/K">
  <eqno value="16" />
  <A value="82107" />
  <B value="-687.16" />
  <C value="13.353" />
  <D value="-0.00070647" />
  <E value="2.4155E-07" />
  <Tmin units="K" value="200" />
  <Tmax units="K" value="1500" />
  </IdealGasHeatCapacityCp>
<SecondVirialCoefficient name="Second virial coefficient" units="m3/kmol">
  <eqno value="104" />
  <A value="0.0058126" />
  <B value="205.06" />
  <C value="-277.68" />
  <D value="1325800" />
  <E value="-7165900" />
  <Tmin units="K" value="372.3" />
  <Tmax units="K" value="1564" />
  </SecondVirialCoefficient>
<LiquidViscosity name="Liquid viscosity" units="Pa.s">
  <eqno value="101" />
  <A value="-374.29" />
  <B value="18192" />
  <C value="55.132" />
  <D value="-0.000049166" />
  <E value="2" />
  <Tmin units="K" value="262.7" />
  <Tmax units="K" value="595.68" />
  </LiquidViscosity>
<VaporViscosity name="Vapour viscosity" units="Pa.s">
  <eqno value="102" />
  <A value="6.4523E-08" />
  <B value="0.8468" />
  <C value="24.322" />
  <D value="7352.9" />
  <Tmin units="K" value="262.7" />
  <Tmax units="K" value="1000" />
  </VaporViscosity>
<LiquidThermalConductivity name="Liquid thermal conductivity" units="W/m/K">
  <eqno value="16" />
  <A value="-0.11579" />
  <B value="8.2246" />
  <C value="-1.6466" />
  <D value="0.002673" />
  <E value="-0.0000035412" />
  <Tmin units="K" value="262.7" />
  <Tmax units="K" value="517.95" />
  </LiquidThermalConductivity>
<VaporThermalConductivity name="Vapour thermal conductivity" units="W/m/K">
  <eqno value="102" />
  <A value="500.16" />
  <B value="1.0276" />
  <C value="7.9617E+09" />
  <D value="-7.5258E+11" />
  <Tmin units="K" value="262.7" />
  <Tmax units="K" value="1000" />
  </VaporThermalConductivity>
<SurfaceTension name="Surface tension" units="N/m">
  <eqno value="116" />
  <A value="0" />
  <B value="-0.0648458" />
  <C value="0.111405" />
  <D value="0.156705" />
  <E value="-0.141678" />
  <Tmin units="K" value="200" />
  <Tmax units="K" value="744.6" />
  </SurfaceTension>
<RPPHeatCapacityCp name="Ideal gas heat capacity (RPP)" units="J/kmol/K">
  <eqno value="4" />
  <A value="-8099.9" />
  <B value="599.05" />
  <C value="-0.41929" />
  <D value="0.00011046" />
  <Tmin units="K" value="200" />
  <Tmax units="K" value="1500" />
  </RPPHeatCapacityCp>
<RelativeStaticPermittivity name="Relative static permittivity" units="_">
  <eqno value="120" />
  <A value="-10.44195" />
  <B value="-9962.105" />
  <C value="-59.06982" />
  <Tmin units="K" value="278" />
  <Tmax units="K" value="744" />
  </RelativeStaticPermittivity>
<AntoineVaporPressure name="Antoine" units="Pa">
  <eqno value="10" />
  <A value="20.901" />
  <B value="3422.4" />
  <C value="-153.31" />
  <Tmin units="K" value="447.33" />
  <Tmax units="K" value="668.51" />
  </AntoineVaporPressure>
<LiquidViscosityRPS name="Liquid viscosity (RPS)" units="Pa.s">
  <eqno value="13" />
  <A value="9.862" />
  <B value="-0.057143" />
  <C value="0.000042368" />
  <Tmin units="K" value="262.7" />
  <Tmax units="K" value="595.68" />
  </LiquidViscosityRPS>
<COSTALDVolume name="COSTLD characteristic volume (V*)" units="m3/kmol" value="0.3889" />
<DiameterLJ name="Lennard Jones diameter" units="m" value="7.306526E-10" />
<EnergyLJ name="Lennard Jones energy" units="K" value="252.6928" />
<FullerVolume name="Fuller et al. diffusion volume" units="_" value="105.03" />
<MatthiasCopemanC2 name="Mathias-Copeman C2" units="_" value="-8.3213" />
<Parachor name="Parachor" units="kg0.25.m3/s0.5/kmol" value="0.0445199" />
<SpecificGravity name="Specific gravity" units="_" value="1.12142" />
<Charge name="Charge" units="_" value="0" />
<CostaldAcentricFactor name="SRK acentric factor" units="_" value="1.2005" />
<WilsonVolume name="Wilson volume" units="m3/kmol" value="0.0952681" />
<UniquacR name="UNIQUAC r" units="_" value="4.9415" />
<UniquacQ name="UNIQUAC q" units="_" value="4.8" />
<MatthiasCopemanC3 name="Mathias-Copeman C3" units="_" value="13.224" />
<ChaoSeaderAcentricFactor name="Chao-Seader acentric factor" units="_" value="0.621104" />
<ChaoSeaderSolubilityParameter name="Chao-Seader solubility parameter" units="J0.5/m1.5" value="27775.2" />
<ChaoSeaderLiquidVolume name="Chao-Seader liquid volume" units="m3/kmol" value="0.0952681" />
<UnifacVLE name="UNIFAC">
  <group id="2" value="2" />
  <group id="15" value="1" />
  <group id="100" value="1" />
  </UnifacVLE>
<UnifacLLE name="UNIFAC-LLE">
  <group id="2" value="3" />
  <group id="14" value="2" />
  <group id="28" value="1" />
  </UnifacLLE>
<Asog name="ASOG">
  <group id="2" value="3" />
  <group id="15" value="2" />
  <group id="21" value="1" />
  </Asog>
<GCmethod name="PPR78">
  <group id="2" value="4" />
  <group id="41" value="2" />
  <group id="42" value="1" />
  </GCmethod>
<Umr name="UMR">
  <group id="2" value="2" />
  <group id="15" value="1" />
  <group id="100" value="1" />
  </Umr>
<ModifiedUnifac name="Modified UNIFAC">
  <group id="2" value="3" />
  <group id="14" value="2" />
  <group id="25" value="1" />
  </ModifiedUnifac>
<CAS name="CAS number" value="111-46-6" />
<Smiles name="SMILES" value="OCCOCCO" />
</compound>

