<compound>
<LibraryIndex name="Index" value="6861" />
<CompoundID name="Name" value="diethylethanolamine" />
<StructureFormula name="Structure" value="HOCH2CH2N(CH2CH3)2" />
<Family name="Family" value="68" />
<CriticalTemperature name="Critical temperature" units="K" value="616" />
<CriticalPressure name="Critical pressure" units="Pa" value="2650000" />
<CriticalVolume name="Critical volume" units="m3/kmol" value="0.4231" />
<CriticalCompressibility name="Critical compressibility factor" units="_" value="0.218914" />
<NormalBoilingPointTemperature name="Normal boiling point" units="K" value="434.15" />
<NormalMeltingPointTemperature name="Melting point" units="K" value="235.15" />
<TriplePointTemperature name="Triple point temperature" units="K" value="253" />
<TriplePointPressure name="Triple point pressure" units="Pa" value="4.85244" />
<MolecularWeight name="Molecular weight" units="kg/kmol" value="117.1894" />
<LiquidVolumeAtNormalBoilingPoint name="Liquid molar volume at normal boiling point" units="m3/kmol" value="0.132864" />
<AcentricityFactor name="Acentric factor" units="_" value="0.781757" />
<RadiusOfGyration name="Radius of gyration" units="m" value="4.407E-10" />
<SolubilityParameter name="Solubility parameter" units="J0.5/m1.5" value="19100" />
<DipoleMoment name="Dipole moment" units="Coulomb.m" value="8.11E-30" />
<VanDerWaalsVolume name="Van der Waals volume" units="m3/kmol" value="0.08063" />
<VanDerWaalsArea name="Van der Waals area" units="m2/kmol" value="1.133E+09" />
<HeatOfFormation name="IG heat of formation" units="J/kmol" value="-2.575E+08" />
<GibbsEnergyOfFormation name="IG Gibbs energy of formation" units="J/kmol" value="-3.323E+07" />
<AbsEntropy name="IG absolute entropy" units="J/kmol/K" value="459800" />
<HeatOfFusionAtMeltingPoint name="Heat of fusion at melting point" units="J/kmol" value="1.84E+07" />
<HeatOfCombustion name="Standard net heat of combustion LHV" units="J/kmol" value="-4.03338E+09" />
<SolidDensity name="Solid density" units="kmol/m3">
  <eqno value="100" />
  <A value="10.088" />
  <B value="-0.0049843" />
  <C value="0" />
  <D value="0" />
  <E value="0" />
  <Tmin units="K" value="101.2" />
  <Tmax units="K" value="253" />
  </SolidDensity>
<LiquidDensity name="Liquid density" units="kmol/m3">
  <eqno value="105" />
  <A value="0.63795" />
  <B value="0.25988" />
  <C value="592" />
  <D value="0.27186" />
  <Tmin units="K" value="253" />
  <Tmax units="K" value="592" />
  </LiquidDensity>
<VaporPressure name="Vapour pressure" units="Pa">
  <eqno value="101" />
  <A value="442.3122" />
  <B value="-22650.03" />
  <C value="-64.35227" />
  <D value="0.0000641088" />
  <E value="2" />
  <Tmin units="K" value="253" />
  <Tmax units="K" value="592" />
  </VaporPressure>
<HeatOfVaporization name="Heat of vaporization" units="J/kmol">
  <eqno value="106" />
  <A value="6.442525E+07" />
  <B value="-0.590881" />
  <C value="4.028331" />
  <D value="-5.586056" />
  <E value="2.388691" />
  <Tmin units="K" value="253" />
  <Tmax units="K" value="592" />
  </HeatOfVaporization>
<SolidHeatCapacityCp name="Solid heat capacity" units="J/kmol/K">
  <eqno value="102" />
  <A value="2220" />
  <B value="0.79267" />
  <C value="0" />
  <D value="0" />
  <Tmin units="K" value="50" />
  <Tmax units="K" value="253" />
  </SolidHeatCapacityCp>
<LiquidHeatCapacityCp name="Liquid heat capacity" units="J/kmol/K">
  <eqno value="4" />
  <A value="28933.37" />
  <B value="738.1104" />
  <C value="-0.669126" />
  <D value="0.000593149" />
  <Tmin units="K" value="253" />
  <Tmax units="K" value="592" />
  </LiquidHeatCapacityCp>
<IdealGasHeatCapacityCp name="Ideal gas heat capacity" units="J/kmol/K">
  <eqno value="16" />
  <A value="91061" />
  <B value="-562.7" />
  <C value="13.172" />
  <D value="-0.000023606" />
  <E value="6.7111E-09" />
  <Tmin units="K" value="273" />
  <Tmax units="K" value="1200" />
  </IdealGasHeatCapacityCp>
<SecondVirialCoefficient name="Second virial coefficient" units="m3/kmol">
  <eqno value="104" />
  <A value="0.27423" />
  <B value="-227.63" />
  <C value="-93.133" />
  <D value="-46929" />
  <E value="69828" />
  <Tmin units="K" value="296" />
  <Tmax units="K" value="1500" />
  </SecondVirialCoefficient>
<LiquidViscosity name="Liquid viscosity" units="Pa.s">
  <eqno value="101" />
  <A value="-83.307" />
  <B value="6061.8" />
  <C value="10.089" />
  <D value="-1.4583E-07" />
  <E value="2" />
  <Tmin units="K" value="253" />
  <Tmax units="K" value="516" />
  </LiquidViscosity>
<VaporViscosity name="Vapour viscosity" units="Pa.s">
  <eqno value="102" />
  <A value="1.3335E-07" />
  <B value="0.7599" />
  <C value="186.08" />
  <D value="-6648.4" />
  <Tmin units="K" value="253" />
  <Tmax units="K" value="1000" />
  </VaporViscosity>
<LiquidThermalConductivity name="Liquid thermal conductivity" units="W/m/K">
  <eqno value="16" />
  <A value="-0.0045149" />
  <B value="-46.605" />
  <C value="-1.1875" />
  <D value="-0.0019723" />
  <E value="-5.2781E-08" />
  <Tmin units="K" value="253" />
  <Tmax units="K" value="443" />
  </LiquidThermalConductivity>
<VaporThermalConductivity name="Vapour thermal conductivity" units="W/m/K">
  <eqno value="102" />
  <A value="0.00013877" />
  <B value="0.99774" />
  <C value="582.26" />
  <D value="23748" />
  <Tmin units="K" value="253" />
  <Tmax units="K" value="1000" />
  </VaporThermalConductivity>
<SurfaceTension name="Surface tension" units="N/m">
  <eqno value="2" />
  <A value="0.065" />
  <B value="-0.00011" />
  <Tmin units="K" value="253" />
  <Tmax units="K" value="592" />
  </SurfaceTension>
<RPPHeatCapacityCp name="Ideal gas heat capacity (RPP)" units="J/kmol/K">
  <eqno value="4" />
  <A value="-23633" />
  <B value="791.71" />
  <C value="-0.51703" />
  <D value="0.00013437" />
  <Tmin units="K" value="273" />
  <Tmax units="K" value="1200" />
  </RPPHeatCapacityCp>
<AntoineVaporPressure name="Antoine" units="Pa">
  <eqno value="10" />
  <A value="23.092" />
  <B value="4628.3" />
  <C value="-36.082" />
  <Tmin units="K" value="360.05" />
  <Tmax units="K" value="520.63" />
  </AntoineVaporPressure>
<LiquidViscosityRPS name="Liquid viscosity (RPS)" units="Pa.s">
  <eqno value="12" />
  <A value="6.4" />
  <B value="-0.04" />
  <Tmin units="K" value="253" />
  <Tmax units="K" value="436.15" />
  </LiquidViscosityRPS>
<COSTALDVolume name="COSTLD characteristic volume (V*)" units="m3/kmol" value="0.438537" />
<DiameterLJ name="Lennard Jones diameter" units="m" value="7.157819E-10" />
<EnergyLJ name="Lennard Jones energy" units="K" value="298.6167" />
<RacketParameter name="Rackett parameter" units="_" value="0.231974" />
<FullerVolume name="Fuller et al. diffusion volume" units="_" value="140.7" />
<Parachor name="Parachor" units="kg0.25.m3/s0.5/kmol" value="0.05675" />
<SpecificGravity name="Specific gravity" units="_" value="0.884" />
<Charge name="Charge" units="_" value="0" />
<CostaldAcentricFactor name="SRK acentric factor" units="_" value="0.781757" />
<WilsonVolume name="Wilson volume" units="m3/kmol" value="0.132864" />
<UniquacR name="UNIQUAC r" units="_" value="5.315095" />
<UniquacQ name="UNIQUAC q" units="_" value="4.532" />
<ApiSrkS1 name="API-SRK s1" units="_" value="1.602722" />
<ApiSrkS2 name="API-SRK s2" units="_" value="0" />
<ChaoSeaderAcentricFactor name="Chao-Seader acentric factor" units="_" value="0.781757" />
<ChaoSeaderSolubilityParameter name="Chao-Seader solubility parameter" units="J0.5/m1.5" value="19100" />
<ChaoSeaderLiquidVolume name="Chao-Seader liquid volume" units="m3/kmol" value="0.132864" />
<UnifacVLE name="UNIFAC">
  <group id="1" value="2" />
  <group id="2" value="3" />
  <group id="15" value="1" />
  <group id="36" value="1" />
  </UnifacVLE>
<Asog name="ASOG">
  <group id="1" value="2" />
  <group id="2" value="4" />
  <group id="15" value="1" />
  <group id="31" value="1" />
  </Asog>
<Umr name="UMR">
  <group id="1" value="2" />
  <group id="2" value="3" />
  <group id="15" value="1" />
  <group id="36" value="1" />
  </Umr>
<ModifiedUnifac name="Modified UNIFAC">
  <group id="1" value="2" />
  <group id="2" value="3" />
  <group id="14" value="1" />
  <group id="35" value="1" />
  </ModifiedUnifac>
<CAS name="CAS number" value="100-37-8" />
<Smiles name="SMILES" value="CCN(CC)CCO" />
</compound>

