<compound>
<LibraryIndex name="Index" value="1456" />
<CompoundID name="Name" value="diethylene glycol dimethyl ether" />
<StructureFormula name="Structure" value="CH3OCH2CH2OCH2CH2OCH3" />
<Family name="Family" value="62" />
<CriticalTemperature name="Critical temperature" units="K" value="608" />
<CriticalPressure name="Critical pressure" units="Pa" value="2860000" />
<CriticalVolume name="Critical volume" units="m3/kmol" value="0.422" />
<CriticalCompressibility name="Critical compressibility factor" units="_" value="0.239" />
<NormalBoilingPointTemperature name="Normal boiling point" units="K" value="432.91" />
<NormalMeltingPointTemperature name="Melting point" units="K" value="203.15" />
<TriplePointTemperature name="Triple point temperature" units="K" value="209.11" />
<TriplePointPressure name="Triple point pressure" units="Pa" value="0.0100822" />
<MolecularWeight name="Molecular weight" units="kg/kmol" value="134.174" />
<LiquidVolumeAtNormalBoilingPoint name="Liquid molar volume at normal boiling point" units="m3/kmol" value="0.14289" />
<AcentricityFactor name="Acentric factor" units="_" value="0.577497" />
<RadiusOfGyration name="Radius of gyration" units="m" value="4.413E-10" />
<SolubilityParameter name="Solubility parameter" units="J0.5/m1.5" value="18670" />
<DipoleMoment name="Dipole moment" units="Coulomb.m" value="6.57121E-30" />
<VanDerWaalsVolume name="Van der Waals volume" units="m3/kmol" value="0.07936" />
<VanDerWaalsArea name="Van der Waals area" units="m2/kmol" value="1.144E+09" />
<HeatOfFormation name="IG heat of formation" units="J/kmol" value="-5.11E+08" />
<GibbsEnergyOfFormation name="IG Gibbs energy of formation" units="J/kmol" value="-2.86E+08" />
<AbsEntropy name="IG absolute entropy" units="J/kmol/K" value="503000" />
<HeatOfFusionAtMeltingPoint name="Heat of fusion at melting point" units="J/kmol" value="1.36E+07" />
<HeatOfCombustion name="Standard net heat of combustion LHV" units="J/kmol" value="-3.491E+09" />
<SolidDensity name="Solid density" units="kmol/m3">
  <eqno value="100" />
  <A value="9.819" />
  <B value="-0.0058695" />
  <C value="0" />
  <D value="0" />
  <E value="0" />
  <Tmin units="K" value="83.64" />
  <Tmax units="K" value="209.11" />
  </SolidDensity>
<LiquidDensity name="Liquid density" units="kmol/m3">
  <eqno value="105" />
  <A value="0.61713" />
  <B value="0.26042" />
  <C value="608" />
  <D value="0.32206" />
  <Tmin units="K" value="209.11" />
  <Tmax units="K" value="608" />
  </LiquidDensity>
<VaporPressure name="Vapour pressure" units="Pa">
  <eqno value="101" />
  <A value="177.17" />
  <B value="-11630" />
  <C value="-24.507" />
  <D value="0.022893" />
  <E value="1" />
  <Tmin units="K" value="209.11" />
  <Tmax units="K" value="608" />
  </VaporPressure>
<HeatOfVaporization name="Heat of vaporization" units="J/kmol">
  <eqno value="106" />
  <A value="6.6956E+07" />
  <B value="0.36652" />
  <C value="0" />
  <D value="0" />
  <E value="0" />
  <Tmin units="K" value="209.11" />
  <Tmax units="K" value="608" />
  </HeatOfVaporization>
<SolidHeatCapacityCp name="Solid heat capacity" units="J/kmol/K">
  <eqno value="100" />
  <A value="1549.2" />
  <B value="1369.1" />
  <C value="-4.0379" />
  <D value="0.0062776" />
  <E value="0" />
  <Tmin units="K" value="90" />
  <Tmax units="K" value="209.11" />
  </SolidHeatCapacityCp>
<LiquidHeatCapacityCp name="Liquid heat capacity" units="J/kmol/K">
  <eqno value="100" />
  <A value="318270" />
  <B value="-410.4" />
  <C value="0.87408" />
  <D value="0" />
  <E value="0" />
  <Tmin units="K" value="209.11" />
  <Tmax units="K" value="400" />
  </LiquidHeatCapacityCp>
<IdealGasHeatCapacityCp name="Ideal gas heat capacity" units="J/kmol/K">
  <eqno value="16" />
  <A value="83989.7" />
  <B value="-505" />
  <C value="13.13" />
  <D value="0" />
  <E value="0" />
  <Tmin units="K" value="255" />
  <Tmax units="K" value="1500" />
  </IdealGasHeatCapacityCp>
<SecondVirialCoefficient name="Second virial coefficient" units="m3/kmol">
  <eqno value="104" />
  <A value="0.30695" />
  <B value="-316.11" />
  <C value="-9.2522E+07" />
  <D value="-3.3215E+20" />
  <E value="3.7181E+22" />
  <Tmin units="K" value="304" />
  <Tmax units="K" value="1500" />
  </SecondVirialCoefficient>
<LiquidViscosity name="Liquid viscosity" units="Pa.s">
  <eqno value="101" />
  <A value="-11.441" />
  <B value="1385.5" />
  <C value="-0.02396" />
  <D value="0" />
  <E value="0" />
  <Tmin units="K" value="209.11" />
  <Tmax units="K" value="435.65" />
  </LiquidViscosity>
<VaporViscosity name="Vapour viscosity" units="Pa.s">
  <eqno value="102" />
  <A value="2.8111E-07" />
  <B value="0.64991" />
  <C value="248.08" />
  <D value="0" />
  <Tmin units="K" value="209.11" />
  <Tmax units="K" value="1000" />
  </VaporViscosity>
<LiquidThermalConductivity name="Liquid thermal conductivity" units="W/m/K">
  <eqno value="100" />
  <A value="0.21596" />
  <B value="-0.00019656" />
  <C value="0" />
  <D value="0" />
  <E value="0" />
  <Tmin units="K" value="209.11" />
  <Tmax units="K" value="573.15" />
  </LiquidThermalConductivity>
<VaporThermalConductivity name="Vapour thermal conductivity" units="W/m/K">
  <eqno value="102" />
  <A value="0.00017043" />
  <B value="0.94965" />
  <C value="723.21" />
  <D value="0" />
  <Tmin units="K" value="435.65" />
  <Tmax units="K" value="1000" />
  </VaporThermalConductivity>
<SurfaceTension name="Surface tension" units="N/m">
  <eqno value="106" />
  <A value="0.075846" />
  <B value="1.3569" />
  <C value="0" />
  <D value="0" />
  <E value="0" />
  <Tmin units="K" value="209.11" />
  <Tmax units="K" value="608" />
  </SurfaceTension>
<AntoineVaporPressure name="Antoine" units="Pa">
  <eqno value="10" />
  <A value="21.14309" />
  <B value="3513.473" />
  <C value="-69.63038" />
  <Tmin units="K" value="346.328" />
  <Tmax units="K" value="608" />
  </AntoineVaporPressure>
<FullerVolume name="Fuller et al. diffusion volume" units="_" value="146.07" />
<Charge name="Charge" units="_" value="0" />
<CostaldAcentricFactor name="SRK acentric factor" units="_" value="0.577497" />
<WilsonVolume name="Wilson volume" units="m3/kmol" value="0.14289" />
<UniquacR name="UNIQUAC r" units="_" value="5.2315" />
<UniquacQ name="UNIQUAC q" units="_" value="4.576" />
<ChaoSeaderAcentricFactor name="Chao-Seader acentric factor" units="_" value="0.577497" />
<ChaoSeaderSolubilityParameter name="Chao-Seader solubility parameter" units="J0.5/m1.5" value="18670" />
<ChaoSeaderLiquidVolume name="Chao-Seader liquid volume" units="m3/kmol" value="0.14289" />
<UnifacVLE name="UNIFAC">
  <group id="2" value="3" />
  <group id="25" value="2" />
  <group id="26" value="1" />
  </UnifacVLE>
<UnifacLLE name="UNIFAC-LLE">
  <group id="2" value="3" />
  <group id="27" value="2" />
  <group id="28" value="1" />
  </UnifacLLE>
<Asog name="ASOG">
  <group id="2" value="3" />
  <group id="19" value="2" />
  <group id="19" value="1" />
  </Asog>
<GCmethod name="PPR78">
  <group id="2" value="3" />
  </GCmethod>
<Umr name="UMR">
  <group id="2" value="3" />
  <group id="25" value="2" />
  <group id="26" value="1" />
  </Umr>
<ModifiedUnifac name="Modified UNIFAC">
  <group id="2" value="3" />
  <group id="24" value="2" />
  <group id="25" value="1" />
  </ModifiedUnifac>
<CAS name="CAS number" value="111-96-6" />
<Smiles name="SMILES" value="COCCOCCOC" />
</compound>

