<compound>
<LibraryIndex name="Index" value="1403" />
<CompoundID name="Name" value="diisopropyl ether" />
<StructureFormula name="Structure" value="CH3CH(CH3)OCH(CH3)CH3" />
<Family name="Family" value="61" />
<CriticalTemperature name="Critical temperature" units="K" value="500.05" />
<CriticalPressure name="Critical pressure" units="Pa" value="2880000" />
<CriticalVolume name="Critical volume" units="m3/kmol" value="0.386" />
<CriticalCompressibility name="Critical compressibility factor" units="_" value="0.267" />
<NormalBoilingPointTemperature name="Normal boiling point" units="K" value="341.45" />
<NormalMeltingPointTemperature name="Melting point" units="K" value="187.65" />
<TriplePointTemperature name="Triple point temperature" units="K" value="187.65" />
<TriplePointPressure name="Triple point pressure" units="Pa" value="6.8582" />
<MolecularWeight name="Molecular weight" units="kg/kmol" value="102.1748" />
<LiquidVolumeAtNormalBoilingPoint name="Liquid molar volume at normal boiling point" units="m3/kmol" value="0.141775" />
<AcentricityFactor name="Acentric factor" units="_" value="0.338683" />
<RadiusOfGyration name="Radius of gyration" units="m" value="3.906E-10" />
<SolubilityParameter name="Solubility parameter" units="J0.5/m1.5" value="14450" />
<DipoleMoment name="Dipole moment" units="Coulomb.m" value="3.77E-30" />
<VanDerWaalsVolume name="Van der Waals volume" units="m3/kmol" value="0.0719399" />
<VanDerWaalsArea name="Van der Waals area" units="m2/kmol" value="1.022E+09" />
<HeatOfFormation name="IG heat of formation" units="J/kmol" value="-3.18988E+08" />
<GibbsEnergyOfFormation name="IG Gibbs energy of formation" units="J/kmol" value="-1.248E+08" />
<AbsEntropy name="IG absolute entropy" units="J/kmol/K" value="382000" />
<HeatOfFusionAtMeltingPoint name="Heat of fusion at melting point" units="J/kmol" value="1.103E+07" />
<MatthiasCopemanC1 name="Mathias-Copeman C1" units="_" value="0.91199" />
<HeatOfCombustion name="Standard net heat of combustion LHV" units="J/kmol" value="-3.70234E+09" />
<SolidDensity name="Solid density" units="kmol/m3">
  <eqno value="2" />
  <A value="10.235" />
  <B value="-0.0060556" />
  <C value="0" />
  <D value="0" />
  <E value="0" />
  <Tmin units="K" value="75.06" />
  <Tmax units="K" value="187.65" />
  </SolidDensity>
<LiquidDensity name="Liquid density" units="kmol/m3">
  <eqno value="105" />
  <A value="0.72527" />
  <B value="0.27594" />
  <C value="500.05" />
  <D value="0.29413" />
  <Tmin units="K" value="187.65" />
  <Tmax units="K" value="483.61" />
  </LiquidDensity>
<VaporPressure name="Vapour pressure" units="Pa">
  <eqno value="101" />
  <A value="109.5333" />
  <B value="-7120.297" />
  <C value="-13.51365" />
  <D value="0.0000143778" />
  <E value="2" />
  <Tmin units="K" value="187.65" />
  <Tmax units="K" value="500.05" />
  </VaporPressure>
<HeatOfVaporization name="Heat of vaporization" units="J/kmol">
  <eqno value="106" />
  <A value="5.8041E+07" />
  <B value="2.3385" />
  <C value="-5.2086" />
  <D value="5.0367" />
  <E value="-1.6926" />
  <Tmin units="K" value="187.65" />
  <Tmax units="K" value="483.61" />
  </HeatOfVaporization>
<SolidHeatCapacityCp name="Solid heat capacity" units="J/kmol/K">
  <eqno value="100" />
  <A value="-12905" />
  <B value="1581.3" />
  <C value="-8.8913" />
  <D value="0.036008" />
  <E value="-0.000053243" />
  <Tmin units="K" value="10" />
  <Tmax units="K" value="187.77" />
  </SolidHeatCapacityCp>
<LiquidHeatCapacityCp name="Liquid heat capacity" units="J/kmol/K">
  <eqno value="16" />
  <A value="161880" />
  <B value="-2.8879" />
  <C value="7.7638" />
  <D value="0.014551" />
  <E value="-0.000013251" />
  <Tmin units="K" value="187.65" />
  <Tmax units="K" value="341.45" />
  </LiquidHeatCapacityCp>
<IdealGasHeatCapacityCp name="Ideal gas heat capacity" units="J/kmol/K">
  <eqno value="16" />
  <A value="69454" />
  <B value="-410.18" />
  <C value="12.642" />
  <D value="0.00044085" />
  <E value="-1.3595E-07" />
  <Tmin units="K" value="187.65" />
  <Tmax units="K" value="1500" />
  </IdealGasHeatCapacityCp>
<SecondVirialCoefficient name="Second virial coefficient" units="m3/kmol">
  <eqno value="104" />
  <A value="0.20132" />
  <B value="-190.66" />
  <C value="-42.523" />
  <D value="5178" />
  <E value="-15257" />
  <Tmin units="K" value="250" />
  <Tmax units="K" value="1500" />
  </SecondVirialCoefficient>
<LiquidViscosity name="Liquid viscosity" units="Pa.s">
  <eqno value="101" />
  <A value="-9.064" />
  <B value="932.47" />
  <C value="-0.38815" />
  <D value="0.0000010323" />
  <E value="2" />
  <Tmin units="K" value="187.65" />
  <Tmax units="K" value="450" />
  </LiquidViscosity>
<VaporViscosity name="Vapour viscosity" units="Pa.s">
  <eqno value="102" />
  <A value="4.0782E-07" />
  <B value="0.58517" />
  <C value="121.4" />
  <D value="19303" />
  <Tmin units="K" value="187.65" />
  <Tmax units="K" value="1000" />
  </VaporViscosity>
<LiquidThermalConductivity name="Liquid thermal conductivity" units="W/m/K">
  <eqno value="16" />
  <A value="0.067752" />
  <B value="-462.02" />
  <C value="2.3997" />
  <D value="-0.014453" />
  <E value="0.0000029856" />
  <Tmin units="K" value="187.65" />
  <Tmax units="K" value="423.15" />
  </LiquidThermalConductivity>
<VaporThermalConductivity name="Vapour thermal conductivity" units="W/m/K">
  <eqno value="102" />
  <A value="0.00010149" />
  <B value="1.0246" />
  <C value="180.97" />
  <D value="93179" />
  <Tmin units="K" value="187.65" />
  <Tmax units="K" value="1000" />
  </VaporThermalConductivity>
<SurfaceTension name="Surface tension" units="N/m">
  <eqno value="16" />
  <A value="-0.0092656" />
  <B value="51.562" />
  <C value="-3.4763" />
  <D value="0.0012682" />
  <E value="-0.000007923" />
  <Tmin units="K" value="187.65" />
  <Tmax units="K" value="483.61" />
  </SurfaceTension>
<RPPHeatCapacityCp name="Ideal gas heat capacity (RPP)" units="J/kmol/K">
  <eqno value="4" />
  <A value="7177.4" />
  <B value="598.8" />
  <C value="-0.32962" />
  <D value="0.000071947" />
  <Tmin units="K" value="187.65" />
  <Tmax units="K" value="1500" />
  </RPPHeatCapacityCp>
<RelativeStaticPermittivity name="Relative static permittivity" units="_">
  <eqno value="120" />
  <A value="-2.907471" />
  <B value="-1950" />
  <C value="-11.7" />
  <Tmin units="K" value="279.15" />
  <Tmax units="K" value="449.15" />
  </RelativeStaticPermittivity>
<AntoineVaporPressure name="Antoine" units="Pa">
  <eqno value="10" />
  <A value="21.585" />
  <B value="3179.8" />
  <C value="-25.516" />
  <Tmin units="K" value="300.26" />
  <Tmax units="K" value="450" />
  </AntoineVaporPressure>
<LiquidViscosityRPS name="Liquid viscosity (RPS)" units="Pa.s">
  <eqno value="12" />
  <A value="-3.4668" />
  <B value="-0.015287" />
  <Tmin units="K" value="187.65" />
  <Tmax units="K" value="341.45" />
  </LiquidViscosityRPS>
<COSTALDVolume name="COSTLD characteristic volume (V*)" units="m3/kmol" value="0.387973" />
<DiameterLJ name="Lennard Jones diameter" units="m" value="6.626648E-10" />
<EnergyLJ name="Lennard Jones energy" units="K" value="281.4279" />
<RacketParameter name="Rackett parameter" units="_" value="0.267" />
<FullerVolume name="Fuller et al. diffusion volume" units="_" value="133.85" />
<MatthiasCopemanC2 name="Mathias-Copeman C2" units="_" value="0.82949" />
<Parachor name="Parachor" units="kg0.25.m3/s0.5/kmol" value="0.0513038" />
<SpecificGravity name="Specific gravity" units="_" value="0.730337" />
<Charge name="Charge" units="_" value="0" />
<CostaldAcentricFactor name="SRK acentric factor" units="_" value="0.338683" />
<WilsonVolume name="Wilson volume" units="m3/kmol" value="0.141775" />
<UniquacR name="UNIQUAC r" units="_" value="4.7421" />
<UniquacQ name="UNIQUAC q" units="_" value="4.088" />
<ApiSrkS1 name="API-SRK s1" units="_" value="1.025312" />
<ApiSrkS2 name="API-SRK s2" units="_" value="-0.033494" />
<MatthiasCopemanC3 name="Mathias-Copeman C3" units="_" value="-2.1989" />
<ChaoSeaderAcentricFactor name="Chao-Seader acentric factor" units="_" value="0.338683" />
<ChaoSeaderSolubilityParameter name="Chao-Seader solubility parameter" units="J0.5/m1.5" value="14450" />
<ChaoSeaderLiquidVolume name="Chao-Seader liquid volume" units="m3/kmol" value="0.141775" />
<UnifacVLE name="UNIFAC">
  <group id="1" value="4" />
  <group id="3" value="1" />
  <group id="27" value="1" />
  </UnifacVLE>
<UnifacLLE name="UNIFAC-LLE">
  <group id="1" value="4" />
  <group id="3" value="1" />
  <group id="29" value="1" />
  </UnifacLLE>
<Asog name="ASOG">
  <group id="1" value="4" />
  <group id="3" value="2" />
  <group id="19" value="1" />
  </Asog>
<Umr name="UMR">
  <group id="1" value="4" />
  <group id="3" value="1" />
  <group id="27" value="1" />
  </Umr>
<ModifiedUnifac name="Modified UNIFAC">
  <group id="1" value="4" />
  <group id="3" value="1" />
  <group id="26" value="1" />
  </ModifiedUnifac>
<CAS name="CAS number" value="108-20-3" />
<Smiles name="SMILES" value="CC(C)OC(C)C" />
</compound>

