<compound>
<LibraryIndex name="Index" value="6863" />
<CompoundID name="Name" value="dimethylethanolamine" />
<StructureFormula name="Structure" value="HOCH2CH2N(CH3)2" />
<Family name="Family" value="68" />
<CriticalTemperature name="Critical temperature" units="K" value="571.82" />
<CriticalPressure name="Critical pressure" units="Pa" value="4140000" />
<CriticalVolume name="Critical volume" units="m3/kmol" value="0.331" />
<CriticalCompressibility name="Critical compressibility factor" units="_" value="0.261" />
<NormalBoilingPointTemperature name="Normal boiling point" units="K" value="404.15" />
<NormalMeltingPointTemperature name="Melting point" units="K" value="214.15" />
<TriplePointTemperature name="Triple point temperature" units="K" value="214.15" />
<TriplePointPressure name="Triple point pressure" units="Pa" value="0.0376223" />
<MolecularWeight name="Molecular weight" units="kg/kmol" value="89.13624" />
<LiquidVolumeAtNormalBoilingPoint name="Liquid molar volume at normal boiling point" units="m3/kmol" value="0.101094" />
<AcentricityFactor name="Acentric factor" units="_" value="0.710963" />
<RadiusOfGyration name="Radius of gyration" units="m" value="3.46249E-10" />
<SolubilityParameter name="Solubility parameter" units="J0.5/m1.5" value="22790" />
<DipoleMoment name="Dipole moment" units="Coulomb.m" value="7.37E-30" />
<VanDerWaalsVolume name="Van der Waals volume" units="m3/kmol" value="0.06017" />
<VanDerWaalsArea name="Van der Waals area" units="m2/kmol" value="8.63E+08" />
<HeatOfFormation name="IG heat of formation" units="J/kmol" value="-2.02E+08" />
<GibbsEnergyOfFormation name="IG Gibbs energy of formation" units="J/kmol" value="-3.64E+07" />
<AbsEntropy name="IG absolute entropy" units="J/kmol/K" value="384000" />
<HeatOfFusionAtMeltingPoint name="Heat of fusion at melting point" units="J/kmol" value="0" />
<HeatOfCombustion name="Standard net heat of combustion LHV" units="J/kmol" value="-2.65E+09" />
<SolidDensity name="Solid density" units="kmol/m3">
  <eqno value="100" />
  <A value="13.805" />
  <B value="-0.0080578" />
  <C value="0" />
  <D value="0" />
  <E value="0" />
  <Tmin units="K" value="85.66" />
  <Tmax units="K" value="214.15" />
  </SolidDensity>
<LiquidDensity name="Liquid density" units="kmol/m3">
  <eqno value="105" />
  <A value="0.87166" />
  <B value="0.26133" />
  <C value="571.82" />
  <D value="0.28585" />
  <Tmin units="K" value="214.15" />
  <Tmax units="K" value="571.82" />
  </LiquidDensity>
<VaporPressure name="Vapour pressure" units="Pa">
  <eqno value="101" />
  <A value="121.6094" />
  <B value="-10451.37" />
  <C value="-14.23754" />
  <D value="0.000006927" />
  <E value="2" />
  <Tmin units="K" value="214.15" />
  <Tmax units="K" value="571.82" />
  </VaporPressure>
<HeatOfVaporization name="Heat of vaporization" units="J/kmol">
  <eqno value="106" />
  <A value="7.9011E+07" />
  <B value="0.56455" />
  <C value="-0.031757" />
  <D value="-0.28621" />
  <E value="0.17191" />
  <Tmin units="K" value="214.15" />
  <Tmax units="K" value="571.82" />
  </HeatOfVaporization>
<SolidHeatCapacityCp name="Solid heat capacity" units="J/kmol/K">
  <eqno value="102" />
  <A value="1800" />
  <B value="0.79267" />
  <C value="0" />
  <D value="0" />
  <Tmin units="K" value="50" />
  <Tmax units="K" value="214.15" />
  </SolidHeatCapacityCp>
<LiquidHeatCapacityCp name="Liquid heat capacity" units="J/kmol/K">
  <eqno value="16" />
  <A value="66692" />
  <B value="-55.489" />
  <C value="10.897" />
  <D value="0.0047237" />
  <E value="-0.0000030382" />
  <Tmin units="K" value="299.91" />
  <Tmax units="K" value="425.91" />
  </LiquidHeatCapacityCp>
<IdealGasHeatCapacityCp name="Ideal gas heat capacity" units="J/kmol/K">
  <eqno value="16" />
  <A value="71203" />
  <B value="-582.55" />
  <C value="12.891" />
  <D value="-0.000082299" />
  <E value="3.2172E-08" />
  <Tmin units="K" value="273" />
  <Tmax units="K" value="1200" />
  </IdealGasHeatCapacityCp>
<SecondVirialCoefficient name="Second virial coefficient" units="m3/kmol">
  <eqno value="104" />
  <A value="0.21155" />
  <B value="-189.81" />
  <C value="-51.091" />
  <D value="-19900" />
  <E value="29045" />
  <Tmin units="K" value="285.91" />
  <Tmax units="K" value="1500" />
  </SecondVirialCoefficient>
<LiquidViscosity name="Liquid viscosity" units="Pa.s">
  <eqno value="101" />
  <A value="-15.376" />
  <B value="3350.8" />
  <C value="-0.34232" />
  <D value="9.4723E-07" />
  <E value="2" />
  <Tmin units="K" value="214.15" />
  <Tmax units="K" value="550" />
  </LiquidViscosity>
<VaporViscosity name="Vapour viscosity" units="Pa.s">
  <eqno value="102" />
  <A value="1.2904E-07" />
  <B value="0.77955" />
  <C value="165.36" />
  <D value="-6888.3" />
  <Tmin units="K" value="214.15" />
  <Tmax units="K" value="1000" />
  </VaporViscosity>
<LiquidThermalConductivity name="Liquid thermal conductivity" units="W/m/K">
  <eqno value="16" />
  <A value="-0.083559" />
  <B value="-10.945" />
  <C value="-0.99458" />
  <D value="-0.00097463" />
  <E value="-8.1342E-07" />
  <Tmin units="K" value="214.15" />
  <Tmax units="K" value="407.15" />
  </LiquidThermalConductivity>
<VaporThermalConductivity name="Vapour thermal conductivity" units="W/m/K">
  <eqno value="102" />
  <A value="0.00023136" />
  <B value="0.92757" />
  <C value="412.5" />
  <D value="95357" />
  <Tmin units="K" value="214.15" />
  <Tmax units="K" value="1000" />
  </VaporThermalConductivity>
<SurfaceTension name="Surface tension" units="N/m">
  <eqno value="16" />
  <A value="-0.0127" />
  <B value="89.713" />
  <C value="-3.389" />
  <D value="0.0019204" />
  <E value="-0.0000065659" />
  <Tmin units="K" value="214.15" />
  <Tmax units="K" value="571.82" />
  </SurfaceTension>
<RPPHeatCapacityCp name="Ideal gas heat capacity (RPP)" units="J/kmol/K">
  <eqno value="4" />
  <A value="-13496" />
  <B value="570.3" />
  <C value="-0.37223" />
  <D value="0.000097254" />
  <Tmin units="K" value="273" />
  <Tmax units="K" value="1200" />
  </RPPHeatCapacityCp>
<AntoineVaporPressure name="Antoine" units="Pa">
  <eqno value="10" />
  <A value="22.242" />
  <B value="3423.1" />
  <C value="-87.75" />
  <Tmin units="K" value="345.92" />
  <Tmax units="K" value="500.29" />
  </AntoineVaporPressure>
<LiquidViscosityRPS name="Liquid viscosity (RPS)" units="Pa.s">
  <eqno value="12" />
  <A value="4.354" />
  <B value="-0.033071" />
  <Tmin units="K" value="214.15" />
  <Tmax units="K" value="457.46" />
  </LiquidViscosityRPS>
<COSTALDVolume name="COSTLD characteristic volume (V*)" units="m3/kmol" value="0.32159" />
<DiameterLJ name="Lennard Jones diameter" units="m" value="6.469723E-10" />
<EnergyLJ name="Lennard Jones energy" units="K" value="296.5367" />
<RacketParameter name="Rackett parameter" units="_" value="0.261" />
<FullerVolume name="Fuller et al. diffusion volume" units="_" value="99.66" />
<Parachor name="Parachor" units="kg0.25.m3/s0.5/kmol" value="0.0423961" />
<SpecificGravity name="Specific gravity" units="_" value="0.892" />
<Charge name="Charge" units="_" value="0" />
<CostaldAcentricFactor name="SRK acentric factor" units="_" value="0.710963" />
<WilsonVolume name="Wilson volume" units="m3/kmol" value="0.101094" />
<UniquacR name="UNIQUAC r" units="_" value="4.4363" />
<UniquacQ name="UNIQUAC q" units="_" value="4.068" />
<ChaoSeaderAcentricFactor name="Chao-Seader acentric factor" units="_" value="0.710963" />
<ChaoSeaderSolubilityParameter name="Chao-Seader solubility parameter" units="J0.5/m1.5" value="22790" />
<ChaoSeaderLiquidVolume name="Chao-Seader liquid volume" units="m3/kmol" value="0.101094" />
<UnifacVLE name="UNIFAC">
  <group id="1" value="1" />
  <group id="2" value="2" />
  <group id="15" value="1" />
  <group id="35" value="1" />
  </UnifacVLE>
<Asog name="ASOG">
  <group id="1" value="2" />
  <group id="2" value="2" />
  <group id="15" value="1" />
  <group id="31" value="1" />
  </Asog>
<Umr name="UMR">
  <group id="1" value="1" />
  <group id="2" value="2" />
  <group id="15" value="1" />
  <group id="35" value="1" />
  </Umr>
<ModifiedUnifac name="Modified UNIFAC">
  <group id="1" value="1" />
  <group id="2" value="2" />
  <group id="14" value="1" />
  <group id="34" value="1" />
  </ModifiedUnifac>
<CAS name="CAS number" value="108-01-0" />
<Smiles name="SMILES" value="CN(C)CCO" />
</compound>

