<compound>
<LibraryIndex name="Index" value="22587" />
<CompoundID name="Name" value="ethyl phenyl carbonate" />
<StructureFormula name="Structure" value="CH3CH2(OCOO)C6H5" />
<Family name="Family" value="45" />
<CriticalTemperature name="Critical temperature" units="K" value="717.3434" />
<CriticalPressure name="Critical pressure" units="Pa" value="3073857" />
<CriticalVolume name="Critical volume" units="m3/kmol" value="0.55209" />
<CriticalCompressibility name="Critical compressibility factor" units="_" value="0.230336" />
<NormalBoilingPointTemperature name="Normal boiling point" units="K" value="522.67" />
<MolecularWeight name="Molecular weight" units="kg/kmol" value="166.1739" />
<LiquidVolumeAtNormalBoilingPoint name="Liquid molar volume at normal boiling point" units="m3/kmol" value="0.18105" />
<AcentricityFactor name="Acentric factor" units="_" value="0.515822" />
<SolubilityParameter name="Solubility parameter" units="J0.5/m1.5" value="18670.52" />
<VanDerWaalsVolume name="Van der Waals volume" units="m3/kmol" value="0.0937081" />
<VanDerWaalsArea name="Van der Waals area" units="m2/kmol" value="1.2245E+09" />
<HeatOfFormation name="IG heat of formation" units="J/kmol" value="-4.6892E+08" />
<GibbsEnergyOfFormation name="IG Gibbs energy of formation" units="J/kmol" value="-3.0311E+08" />
<AbsEntropy name="IG absolute entropy" units="J/kmol/K" value="553086.3" />
<HeatOfCombustion name="Standard net heat of combustion LHV" units="J/kmol" value="-4.44418E+09" />
<VaporPressure name="Vapour pressure" units="Pa">
  <eqno value="10" />
  <A value="22.88975" />
  <B value="5939.5" />
  <C value="0" />
  <Tmin units="K" value="273" />
  <Tmax units="K" value="717.343" />
  </VaporPressure>
<HeatOfVaporization name="Heat of vaporization" units="J/kmol">
  <eqno value="106" />
  <A value="7.782127E+07" />
  <B value="0.38" />
  <C value="0" />
  <D value="0" />
  <E value="0" />
  <Tmin units="K" value="365.869" />
  <Tmax units="K" value="717.343" />
  </HeatOfVaporization>
<SolidHeatCapacityCp name="Solid heat capacity" units="J/kmol/K">
  <eqno value="1" />
  <A value="213870" />
  <Tmin units="K" value="0" />
  <Tmax units="K" value="661.14" />
  </SolidHeatCapacityCp>
<IdealGasHeatCapacityCp name="Ideal gas heat capacity" units="J/kmol/K">
  <eqno value="16" />
  <A value="82400.01" />
  <B value="-500" />
  <C value="13.1427" />
  <D value="0" />
  <E value="0" />
  <Tmin units="K" value="255" />
  <Tmax units="K" value="1500" />
  </IdealGasHeatCapacityCp>
<VaporViscosity name="Vapour viscosity" units="Pa.s">
  <eqno value="2" />
  <A value="-0.0000003703" />
  <B value="1.3217E-08" />
  <Tmin units="K" value="427.89" />
  <Tmax units="K" value="1000" />
  </VaporViscosity>
<SurfaceTension name="Surface tension" units="N/m">
  <eqno value="116" />
  <A value="0" />
  <B value="0" />
  <C value="0" />
  <D value="0.0276342" />
  <E value="0.0276342" />
  <Tmin units="K" value="273" />
  <Tmax units="K" value="717.3434" />
  </SurfaceTension>
<RPPHeatCapacityCp name="Ideal gas heat capacity (RPP)" units="J/kmol/K">
  <eqno value="4" />
  <A value="-32096" />
  <B value="643.04" />
  <C value="-0.37254" />
  <D value="0.000089182" />
  <Tmin units="K" value="198.34" />
  <Tmax units="K" value="1500" />
  </RPPHeatCapacityCp>
<AntoineVaporPressure name="Antoine" units="Pa">
  <eqno value="10" />
  <A value="21.03089" />
  <B value="3977.417" />
  <C value="-104.2059" />
  <Tmin units="K" value="418.136" />
  <Tmax units="K" value="717.343" />
  </AntoineVaporPressure>
<COSTALDVolume name="COSTLD characteristic volume (V*)" units="m3/kmol" value="0.517543" />
<DiameterLJ name="Lennard Jones diameter" units="m" value="7.279963E-10" />
<EnergyLJ name="Lennard Jones energy" units="K" value="274.1277" />
<RacketParameter name="Rackett parameter" units="_" value="0.230336" />
<FullerVolume name="Fuller et al. diffusion volume" units="_" value="166.23" />
<Parachor name="Parachor" units="kg0.25.m3/s0.5/kmol" value="0.0624532" />
<SpecificGravity name="Specific gravity" units="_" value="1.108" />
<Charge name="Charge" units="_" value="0" />
<CostaldAcentricFactor name="SRK acentric factor" units="_" value="0.54406" />
<WilsonVolume name="Wilson volume" units="m3/kmol" value="0.18105" />
<UniquacR name="UNIQUAC r" units="_" value="6.1772" />
<UniquacQ name="UNIQUAC q" units="_" value="4.898" />
<ChaoSeaderAcentricFactor name="Chao-Seader acentric factor" units="_" value="0.54406" />
<ChaoSeaderLiquidVolume name="Chao-Seader liquid volume" units="m3/kmol" value="0.18105" />
<UnifacVLE name="UNIFAC">
  <group id="1" value="1" />
  <group id="2" value="1" />
  <group id="10" value="5" />
  <group id="11" value="1" />
  <group id="120" value="1" />
  </UnifacVLE>
<Asog name="ASOG">
  <group id="1" value="1" />
  <group id="10" value="5" />
  <group id="11" value="1" />
  <group id="21" value="1" />
  <group id="22" value="1" />
  </Asog>
<Umr name="UMR">
  <group id="1" value="1" />
  <group id="2" value="1" />
  <group id="10" value="5" />
  <group id="11" value="1" />
  <group id="120" value="1" />
  </Umr>
<CAS name="CAS number" value="3878-46-4" />
<Smiles name="SMILES" value="CCOC(=O)OC1=CC=CC=C1" />
</compound>

