<compound>
<LibraryIndex name="Index" value="1001" />
<CompoundID name="Name" value="formaldehyde" />
<StructureFormula name="Structure" value="HCHO" />
<Family name="Family" value="25" />
<CriticalTemperature name="Critical temperature" units="K" value="408" />
<CriticalPressure name="Critical pressure" units="Pa" value="6590000" />
<CriticalVolume name="Critical volume" units="m3/kmol" value="0.115" />
<CriticalCompressibility name="Critical compressibility factor" units="_" value="0.223" />
<NormalBoilingPointTemperature name="Normal boiling point" units="K" value="254.05" />
<NormalMeltingPointTemperature name="Melting point" units="K" value="181.15" />
<TriplePointTemperature name="Triple point temperature" units="K" value="181.15" />
<TriplePointPressure name="Triple point pressure" units="Pa" value="887" />
<MolecularWeight name="Molecular weight" units="kg/kmol" value="30.02598" />
<LiquidVolumeAtNormalBoilingPoint name="Liquid molar volume at normal boiling point" units="m3/kmol" value="0.04097" />
<AcentricityFactor name="Acentric factor" units="_" value="0.281846" />
<RadiusOfGyration name="Radius of gyration" units="m" value="1.215E-10" />
<SolubilityParameter name="Solubility parameter" units="J0.5/m1.5" value="21190" />
<DipoleMoment name="Dipole moment" units="Coulomb.m" value="7.77E-30" />
<VanDerWaalsVolume name="Van der Waals volume" units="m3/kmol" value="0.0186" />
<VanDerWaalsArea name="Van der Waals area" units="m2/kmol" value="3.09E+08" />
<HeatOfFormation name="IG heat of formation" units="J/kmol" value="-1.086E+08" />
<GibbsEnergyOfFormation name="IG Gibbs energy of formation" units="J/kmol" value="-1.026E+08" />
<AbsEntropy name="IG absolute entropy" units="J/kmol/K" value="218660" />
<HeatOfFusionAtMeltingPoint name="Heat of fusion at melting point" units="J/kmol" value="7050000" />
<MatthiasCopemanC1 name="Mathias-Copeman C1" units="_" value="0.86009" />
<HeatOfCombustion name="Standard net heat of combustion LHV" units="J/kmol" value="-5.268E+08" />
<SolidDensity name="Solid density" units="kmol/m3">
  <eqno value="2" />
  <A value="39.262" />
  <B value="-0.024084" />
  <Tmin units="K" value="72.46" />
  <Tmax units="K" value="181.15" />
  </SolidDensity>
<LiquidDensity name="Liquid density" units="kmol/m3">
  <eqno value="105" />
  <A value="1.9413" />
  <B value="0.22308" />
  <C value="408" />
  <D value="0.28569" />
  <Tmin units="K" value="181.15" />
  <Tmax units="K" value="396.06" />
  </LiquidDensity>
<VaporPressure name="Vapour pressure" units="Pa">
  <eqno value="101" />
  <A value="62.07923" />
  <B value="-4207.675" />
  <C value="-6.202287" />
  <D value="5.521233E-06" />
  <E value="2" />
  <Tmin units="K" value="163.7" />
  <Tmax units="K" value="408" />
  </VaporPressure>
<HeatOfVaporization name="Heat of vaporization" units="J/kmol">
  <eqno value="106" />
  <A value="3.0902E+07" />
  <B value="0.29722" />
  <C value="-0.051281" />
  <D value="0.13234" />
  <E value="-0.080686" />
  <Tmin units="K" value="181.15" />
  <Tmax units="K" value="396.06" />
  </HeatOfVaporization>
<SolidHeatCapacityCp name="Solid heat capacity" units="J/kmol/K">
  <eqno value="1" />
  <A value="39430" />
  <Tmin units="K" value="0" />
  <Tmax units="K" value="0" />
  </SolidHeatCapacityCp>
<LiquidHeatCapacityCp name="Liquid heat capacity" units="J/kmol/K">
  <eqno value="16" />
  <A value="62716" />
  <B value="-69.453" />
  <C value="3.2871" />
  <D value="0.047782" />
  <E value="-0.0001008" />
  <Tmin units="K" value="204" />
  <Tmax units="K" value="304" />
  </LiquidHeatCapacityCp>
<IdealGasHeatCapacityCp name="Ideal gas heat capacity" units="J/kmol/K">
  <eqno value="16" />
  <A value="33216.06" />
  <B value="-1212.62" />
  <C value="11.96032" />
  <D value="-0.000635943" />
  <E value="1.549232E-07" />
  <Tmin units="K" value="50" />
  <Tmax units="K" value="1500" />
  </IdealGasHeatCapacityCp>
<SecondVirialCoefficient name="Second virial coefficient" units="m3/kmol">
  <eqno value="104" />
  <A value="0.084764" />
  <B value="-73.106" />
  <C value="-5.8267" />
  <D value="281.42" />
  <E value="-763.84" />
  <Tmin units="K" value="204" />
  <Tmax units="K" value="2000" />
  </SecondVirialCoefficient>
<LiquidViscosity name="Liquid viscosity" units="Pa.s">
  <eqno value="101" />
  <A value="-11.303" />
  <B value="753.06" />
  <C value="-0.013733" />
  <D value="-4.6837E-08" />
  <E value="2" />
  <Tmin units="K" value="181.15" />
  <Tmax units="K" value="308" />
  </LiquidViscosity>
<VaporViscosity name="Vapour viscosity" units="Pa.s">
  <eqno value="102" />
  <A value="8.1997E-07" />
  <B value="0.57256" />
  <C value="258.17" />
  <D value="-5091" />
  <Tmin units="K" value="181.15" />
  <Tmax units="K" value="1000" />
  </VaporViscosity>
<LiquidThermalConductivity name="Liquid thermal conductivity" units="W/m/K">
  <eqno value="16" />
  <A value="0.10999" />
  <B value="-161.62" />
  <C value="0.83463" />
  <D value="-0.01142" />
  <E value="0.0000060772" />
  <Tmin units="K" value="204" />
  <Tmax units="K" value="234" />
  </LiquidThermalConductivity>
<VaporThermalConductivity name="Vapour thermal conductivity" units="W/m/K">
  <eqno value="102" />
  <A value="44.841" />
  <B value="-0.71285" />
  <C value="-3466.2" />
  <D value="5262100" />
  <Tmin units="K" value="181.15" />
  <Tmax units="K" value="994.05" />
  </VaporThermalConductivity>
<SurfaceTension name="Surface tension" units="N/m">
  <eqno value="16" />
  <A value="-0.016101" />
  <B value="136.53" />
  <C value="-3.7004" />
  <D value="0.0067657" />
  <E value="-0.000021523" />
  <Tmin units="K" value="181.15" />
  <Tmax units="K" value="396.06" />
  </SurfaceTension>
<RPPHeatCapacityCp name="Ideal gas heat capacity (RPP)" units="J/kmol/K">
  <eqno value="4" />
  <A value="26385.98" />
  <B value="18.47571" />
  <C value="0.0478984" />
  <D value="-0.000030852" />
  <Tmin units="K" value="200" />
  <Tmax units="K" value="1200" />
  </RPPHeatCapacityCp>
<AntoineVaporPressure name="Antoine" units="Pa">
  <eqno value="10" />
  <A value="22.331" />
  <B value="2684.7" />
  <C value="-5.509" />
  <Tmin units="K" value="244.9" />
  <Tmax units="K" value="360.24" />
  </AntoineVaporPressure>
<LiquidViscosityRPS name="Liquid viscosity (RPS)" units="Pa.s">
  <eqno value="13" />
  <A value="-0.78709" />
  <B value="-0.049255" />
  <C value="0.000075747" />
  <Tmin units="K" value="181.15" />
  <Tmax units="K" value="254.05" />
  </LiquidViscosityRPS>
<COSTALDVolume name="COSTLD characteristic volume (V*)" units="m3/kmol" value="0.10819" />
<DiameterLJ name="Lennard Jones diameter" units="m" value="5.493448E-10" />
<EnergyLJ name="Lennard Jones energy" units="K" value="120.0801" />
<FullerVolume name="Fuller et al. diffusion volume" units="_" value="26.63" />
<MatthiasCopemanC2 name="Mathias-Copeman C2" units="_" value="0" />
<Parachor name="Parachor" units="kg0.25.m3/s0.5/kmol" value="0.0168" />
<SpecificGravity name="Specific gravity" units="_" value="0.752445" />
<Charge name="Charge" units="_" value="0" />
<CostaldAcentricFactor name="SRK acentric factor" units="_" value="0.26559" />
<WilsonVolume name="Wilson volume" units="m3/kmol" value="0.0369129" />
<UniquacR name="UNIQUAC r" units="_" value="0.9183" />
<UniquacQ name="UNIQUAC q" units="_" value="0.78" />
<MatthiasCopemanC3 name="Mathias-Copeman C3" units="_" value="0" />
<ChaoSeaderAcentricFactor name="Chao-Seader acentric factor" units="_" value="0.253" />
<ChaoSeaderSolubilityParameter name="Chao-Seader solubility parameter" units="J0.5/m1.5" value="23824.8" />
<ChaoSeaderLiquidVolume name="Chao-Seader liquid volume" units="m3/kmol" value="0.0369129" />
<UnifacVLE name="UNIFAC">
  <group id="26" value="1" />
  </UnifacVLE>
<UnifacLLE name="UNIFAC-LLE">
  <group id="28" value="1" />
  </UnifacLLE>
<Asog name="ASOG">
  <group id="21" value="1" />
  </Asog>
<GCmethod name="PPR78">
  <group id="2" value="1" />
  <group id="42" value="1" />
  </GCmethod>
<Umr name="UMR">
  <group id="26" value="1" />
  </Umr>
<ModifiedUnifac name="Modified UNIFAC">
  <group id="25" value="1" />
  </ModifiedUnifac>
<CAS name="CAS number" value="50-00-0" />
<Smiles name="SMILES" value="C=O" />
</compound>

