<compound>
<LibraryIndex name="Index" value="1889" />
<CompoundID name="Name" value="furfural" />
<StructureFormula name="Structure" value="(OC4H3)CHO" />
<Family name="Family" value="45" />
<CriticalTemperature name="Critical temperature" units="K" value="670.15" />
<CriticalPressure name="Critical pressure" units="Pa" value="5660000" />
<CriticalVolume name="Critical volume" units="m3/kmol" value="0.252" />
<CriticalCompressibility name="Critical compressibility factor" units="_" value="0.256" />
<NormalBoilingPointTemperature name="Normal boiling point" units="K" value="434.85" />
<NormalMeltingPointTemperature name="Melting point" units="K" value="236.65" />
<TriplePointTemperature name="Triple point temperature" units="K" value="236.65" />
<TriplePointPressure name="Triple point pressure" units="Pa" value="1.54565" />
<MolecularWeight name="Molecular weight" units="kg/kmol" value="96.08406" />
<LiquidVolumeAtNormalBoilingPoint name="Liquid molar volume at normal boiling point" units="m3/kmol" value="0.0832248" />
<AcentricityFactor name="Acentric factor" units="_" value="0.367784" />
<RadiusOfGyration name="Radius of gyration" units="m" value="3.35E-10" />
<SolubilityParameter name="Solubility parameter" units="J0.5/m1.5" value="23610" />
<DipoleMoment name="Dipole moment" units="Coulomb.m" value="1.2E-29" />
<VanDerWaalsVolume name="Van der Waals volume" units="m3/kmol" value="0.04812" />
<VanDerWaalsArea name="Van der Waals area" units="m2/kmol" value="6.25E+08" />
<HeatOfFormation name="IG heat of formation" units="J/kmol" value="-1.51E+08" />
<GibbsEnergyOfFormation name="IG Gibbs energy of formation" units="J/kmol" value="-1.028E+08" />
<AbsEntropy name="IG absolute entropy" units="J/kmol/K" value="333300" />
<HeatOfFusionAtMeltingPoint name="Heat of fusion at melting point" units="J/kmol" value="1.44E+07" />
<MatthiasCopemanC1 name="Mathias-Copeman C1" units="_" value="1.4331" />
<HeatOfCombustion name="Standard net heat of combustion LHV" units="J/kmol" value="-2.2564E+09" />
<SolidDensity name="Solid density" units="kmol/m3">
  <eqno value="2" />
  <A value="16.038" />
  <B value="-0.0073899" />
  <Tmin units="K" value="94.66" />
  <Tmax units="K" value="236.65" />
  </SolidDensity>
<LiquidDensity name="Liquid density" units="kmol/m3">
  <eqno value="105" />
  <A value="1.0614" />
  <B value="0.26706" />
  <C value="670.15" />
  <D value="0.30028" />
  <Tmin units="K" value="236.65" />
  <Tmax units="K" value="647.33" />
  </LiquidDensity>
<VaporPressure name="Vapour pressure" units="Pa">
  <eqno value="101" />
  <A value="25.656" />
  <B value="-5514" />
  <C value="-0.19573" />
  <D value="-0.0000013402" />
  <E value="2" />
  <Tmin units="K" value="236.65" />
  <Tmax units="K" value="670.15" />
  </VaporPressure>
<HeatOfVaporization name="Heat of vaporization" units="J/kmol">
  <eqno value="106" />
  <A value="6.3009E+07" />
  <B value="0.4784" />
  <C value="0.066802" />
  <D value="-0.59102" />
  <E value="0.42453" />
  <Tmin units="K" value="236.65" />
  <Tmax units="K" value="647.33" />
  </HeatOfVaporization>
<SolidHeatCapacityCp name="Solid heat capacity" units="J/kmol/K">
  <eqno value="100" />
  <A value="6836.7" />
  <B value="503.49" />
  <C value="-0.0034192" />
  <D value="-0.0033694" />
  <E value="0.0000088513" />
  <Tmin units="K" value="50" />
  <Tmax units="K" value="236.65" />
  </SolidHeatCapacityCp>
<LiquidHeatCapacityCp name="Liquid heat capacity" units="J/kmol/K">
  <eqno value="16" />
  <A value="122630" />
  <B value="404.51" />
  <C value="3.0587" />
  <D value="0.029945" />
  <E value="-0.000031496" />
  <Tmin units="K" value="246.56" />
  <Tmax units="K" value="471.95" />
  </LiquidHeatCapacityCp>
<IdealGasHeatCapacityCp name="Ideal gas heat capacity" units="J/kmol/K">
  <eqno value="16" />
  <A value="45855" />
  <B value="-497.61" />
  <C value="12.549" />
  <D value="-0.000033724" />
  <E value="-2.8785E-08" />
  <Tmin units="K" value="100" />
  <Tmax units="K" value="1500" />
  </IdealGasHeatCapacityCp>
<SecondVirialCoefficient name="Second virial coefficient" units="m3/kmol">
  <eqno value="104" />
  <A value="0.15692" />
  <B value="-204.6" />
  <C value="-63.981" />
  <D value="-111350" />
  <E value="220560" />
  <Tmin units="K" value="335.07" />
  <Tmax units="K" value="1500" />
  </SecondVirialCoefficient>
<LiquidViscosity name="Liquid viscosity" units="Pa.s">
  <eqno value="101" />
  <A value="2.6487" />
  <B value="910.16" />
  <C value="-2.1754" />
  <D value="0.0000028413" />
  <E value="2" />
  <Tmin units="K" value="236.65" />
  <Tmax units="K" value="536.12" />
  </LiquidViscosity>
<VaporViscosity name="Vapour viscosity" units="Pa.s">
  <eqno value="102" />
  <A value="5.1928E-08" />
  <B value="0.91224" />
  <C value="70.285" />
  <D value="-5476.4" />
  <Tmin units="K" value="236.65" />
  <Tmax units="K" value="1000" />
  </VaporViscosity>
<LiquidThermalConductivity name="Liquid thermal conductivity" units="W/m/K">
  <eqno value="16" />
  <A value="0.13228" />
  <B value="19058" />
  <C value="-182.25" />
  <D value="0.56426" />
  <E value="-0.00059782" />
  <Tmin units="K" value="293.15" />
  <Tmax units="K" value="466.63" />
  </LiquidThermalConductivity>
<VaporThermalConductivity name="Vapour thermal conductivity" units="W/m/K">
  <eqno value="102" />
  <A value="0.00022183" />
  <B value="0.91119" />
  <C value="617.18" />
  <D value="55137" />
  <Tmin units="K" value="236.65" />
  <Tmax units="K" value="1000" />
  </VaporThermalConductivity>
<SurfaceTension name="Surface tension" units="N/m">
  <eqno value="16" />
  <A value="-0.023307" />
  <B value="51.068" />
  <C value="-2.7476" />
  <D value="0.00047578" />
  <E value="-0.000003172" />
  <Tmin units="K" value="236.65" />
  <Tmax units="K" value="647.33" />
  </SurfaceTension>
<RPPHeatCapacityCp name="Ideal gas heat capacity (RPP)" units="J/kmol/K">
  <eqno value="4" />
  <A value="4779.126" />
  <B value="385.556" />
  <C value="-0.233346" />
  <D value="0.0000499707" />
  <Tmin units="K" value="50" />
  <Tmax units="K" value="1500" />
  </RPPHeatCapacityCp>
<RelativeStaticPermittivity name="Relative static permittivity" units="_">
  <eqno value="120" />
  <A value="4" />
  <B value="-10000" />
  <C value="-50" />
  <Tmin units="K" value="293" />
  <Tmax units="K" value="670" />
  </RelativeStaticPermittivity>
<AntoineVaporPressure name="Antoine" units="Pa">
  <eqno value="10" />
  <A value="22.467" />
  <B value="4392.1" />
  <C value="-32.683" />
  <Tmin units="K" value="405.3" />
  <Tmax units="K" value="601.7" />
  </AntoineVaporPressure>
<LiquidViscosityRPS name="Liquid viscosity (RPS)" units="Pa.s">
  <eqno value="13" />
  <A value="0.70056" />
  <B value="-0.032345" />
  <C value="0.000028487" />
  <Tmin units="K" value="236.65" />
  <Tmax units="K" value="536.12" />
  </LiquidViscosityRPS>
<COSTALDVolume name="COSTLD characteristic volume (V*)" units="m3/kmol" value="0.255652" />
<DiameterLJ name="Lennard Jones diameter" units="m" value="6.046311E-10" />
<EnergyLJ name="Lennard Jones energy" units="K" value="324.1523" />
<RacketParameter name="Rackett parameter" units="_" value="0.258287" />
<FullerVolume name="Fuller et al. diffusion volume" units="_" value="100.96" />
<MatthiasCopemanC2 name="Mathias-Copeman C2" units="_" value="-2.25422" />
<Parachor name="Parachor" units="kg0.25.m3/s0.5/kmol" value="0.0384" />
<SpecificGravity name="Specific gravity" units="_" value="1.15394" />
<Charge name="Charge" units="_" value="0" />
<CostaldAcentricFactor name="SRK acentric factor" units="_" value="0.383" />
<WilsonVolume name="Wilson volume" units="m3/kmol" value="0.08323" />
<UniquacR name="UNIQUAC r" units="_" value="3.168" />
<UniquacQ name="UNIQUAC q" units="_" value="2.484" />
<UniquacQP name="UNIQUAC q'" units="_" value="2.484" />
<MatthiasCopemanC3 name="Mathias-Copeman C3" units="_" value="3.5842" />
<ChaoSeaderAcentricFactor name="Chao-Seader acentric factor" units="_" value="0.383" />
<ChaoSeaderSolubilityParameter name="Chao-Seader solubility parameter" units="J0.5/m1.5" value="23643.5" />
<ChaoSeaderLiquidVolume name="Chao-Seader liquid volume" units="m3/kmol" value="0.0831649" />
<UnifacVLE name="UNIFAC">
  <group id="62" value="1" />
  </UnifacVLE>
<UnifacLLE name="UNIFAC-LLE">
  <group id="22" value="1" />
  </UnifacLLE>
<Asog name="ASOG">
  <group id="48" value="1" />
  </Asog>
<GCmethod name="PPR78">
  <group id="62" value="1" />
  </GCmethod>
<Umr name="UMR">
  <group id="62" value="1" />
  </Umr>
<ModifiedUnifac name="Modified UNIFAC">
  <group id="61" value="1" />
  </ModifiedUnifac>
<CAS name="CAS number" value="98-01-1" />
<Smiles name="SMILES" value="O1C=CC=C1(C=O)" />
</compound>

