<compound>
<LibraryIndex name="Index" value="1922" />
<CompoundID name="Name" value="hydrogen sulfide" />
<StructureFormula name="Structure" value="HSH" />
<Family name="Family" value="24" />
<CriticalTemperature name="Critical temperature" units="K" value="373.53" />
<CriticalPressure name="Critical pressure" units="Pa" value="8962910" />
<CriticalVolume name="Critical volume" units="m3/kmol" value="0.0985" />
<CriticalCompressibility name="Critical compressibility factor" units="_" value="0.284" />
<NormalBoilingPointTemperature name="Normal boiling point" units="K" value="212.8" />
<NormalMeltingPointTemperature name="Melting point" units="K" value="187.68" />
<TriplePointTemperature name="Triple point temperature" units="K" value="187.68" />
<TriplePointPressure name="Triple point pressure" units="Pa" value="23200" />
<MolecularWeight name="Molecular weight" units="kg/kmol" value="34.08088" />
<LiquidVolumeAtNormalBoilingPoint name="Liquid molar volume at normal boiling point" units="m3/kmol" value="0.0438045" />
<AcentricityFactor name="Acentric factor" units="_" value="0.0941677" />
<RadiusOfGyration name="Radius of gyration" units="m" value="6.384E-11" />
<SolubilityParameter name="Solubility parameter" units="J0.5/m1.5" value="18000" />
<DipoleMoment name="Dipole moment" units="Coulomb.m" value="3.23E-30" />
<VanDerWaalsVolume name="Van der Waals volume" units="m3/kmol" value="0.01872" />
<VanDerWaalsArea name="Van der Waals area" units="m2/kmol" value="3.10256E+08" />
<HeatOfFormation name="IG heat of formation" units="J/kmol" value="-2.063E+07" />
<GibbsEnergyOfFormation name="IG Gibbs energy of formation" units="J/kmol" value="-3.344E+07" />
<AbsEntropy name="IG absolute entropy" units="J/kmol/K" value="205600" />
<HeatOfFusionAtMeltingPoint name="Heat of fusion at melting point" units="J/kmol" value="2376500" />
<MatthiasCopemanC1 name="Mathias-Copeman C1" units="_" value="0.71153" />
<HeatOfCombustion name="Standard net heat of combustion LHV" units="J/kmol" value="-5.18E+08" />
<SolidDensity name="Solid density" units="kmol/m3">
  <eqno value="2" />
  <A value="35.215" />
  <B value="-8.5522E-16" />
  <Tmin units="K" value="0" />
  <Tmax units="K" value="9.5" />
  </SolidDensity>
<LiquidDensity name="Liquid density" units="kmol/m3">
  <eqno value="105" />
  <A value="2.3565" />
  <B value="0.25354" />
  <C value="373.53" />
  <D value="0.26514" />
  <Tmin units="K" value="187.66" />
  <Tmax units="K" value="373.4" />
  </LiquidDensity>
<VaporPressure name="Vapour pressure" units="Pa">
  <eqno value="101" />
  <A value="48.34868" />
  <B value="-3078.428" />
  <C value="-4.229632" />
  <D value="6.844234E-06" />
  <E value="2" />
  <Tmin units="K" value="177.19" />
  <Tmax units="K" value="373.56" />
  </VaporPressure>
<HeatOfVaporization name="Heat of vaporization" units="J/kmol">
  <eqno value="106" />
  <A value="2.7198E+07" />
  <B value="0.69517" />
  <C value="-0.69951" />
  <D value="0.51422" />
  <E value="-0.11694" />
  <Tmin units="K" value="173.15" />
  <Tmax units="K" value="363.75" />
  </HeatOfVaporization>
<SolidHeatCapacityCp name="Solid heat capacity" units="J/kmol/K">
  <eqno value="100" />
  <A value="-14680" />
  <B value="1308" />
  <C value="-20.353" />
  <D value="0.18038" />
  <E value="-0.00052695" />
  <Tmin units="K" value="20" />
  <Tmax units="K" value="130" />
  </SolidHeatCapacityCp>
<LiquidHeatCapacityCp name="Liquid heat capacity" units="J/kmol/K">
  <eqno value="16" />
  <A value="68743" />
  <B value="-100800" />
  <C value="1016.4" />
  <D value="-3.3645" />
  <E value="0.0037533" />
  <Tmin units="K" value="187.67" />
  <Tmax units="K" value="370" />
  </LiquidHeatCapacityCp>
<IdealGasHeatCapacityCp name="Ideal gas heat capacity" units="J/kmol/K">
  <eqno value="16" />
  <A value="33121.9" />
  <B value="-869.6079" />
  <C value="9.605736" />
  <D value="0.00110059" />
  <E value="-3.859399E-07" />
  <Tmin units="K" value="50" />
  <Tmax units="K" value="1500" />
  </IdealGasHeatCapacityCp>
<SecondVirialCoefficient name="Second virial coefficient" units="m3/kmol">
  <eqno value="104" />
  <A value="0.053996" />
  <B value="-21.785" />
  <C value="-7.6379" />
  <D value="493.56" />
  <E value="-1758.3" />
  <Tmin units="K" value="261.24" />
  <Tmax units="K" value="1866" />
  </SecondVirialCoefficient>
<LiquidViscosity name="Liquid viscosity" units="Pa.s">
  <eqno value="101" />
  <A value="7.527" />
  <B value="261.77" />
  <C value="-3.1833" />
  <D value="0.0000078743" />
  <E value="2" />
  <Tmin units="K" value="187.68" />
  <Tmax units="K" value="373" />
  </LiquidViscosity>
<VaporViscosity name="Vapour viscosity" units="Pa.s">
  <eqno value="102" />
  <A value="3.4328E-08" />
  <B value="1.0455" />
  <C value="58.912" />
  <D value="-13329" />
  <Tmin units="K" value="233.15" />
  <Tmax units="K" value="573.15" />
  </VaporViscosity>
<LiquidThermalConductivity name="Liquid thermal conductivity" units="W/m/K">
  <eqno value="16" />
  <A value="-0.078369" />
  <B value="-33.634" />
  <C value="-0.24641" />
  <D value="-0.0025463" />
  <E value="-0.0000049089" />
  <Tmin units="K" value="193.15" />
  <Tmax units="K" value="292.42" />
  </LiquidThermalConductivity>
<VaporThermalConductivity name="Vapour thermal conductivity" units="W/m/K">
  <eqno value="102" />
  <A value="1.0611E-07" />
  <B value="1.8773" />
  <C value="-355.78" />
  <D value="45782" />
  <Tmin units="K" value="187.68" />
  <Tmax units="K" value="600" />
  </VaporThermalConductivity>
<SurfaceTension name="Surface tension" units="N/m">
  <eqno value="16" />
  <A value="-0.006184" />
  <B value="258.76" />
  <C value="-6.4137" />
  <D value="0.016755" />
  <E value="-0.000040713" />
  <Tmin units="K" value="187.68" />
  <Tmax units="K" value="363.75" />
  </SurfaceTension>
<RPPHeatCapacityCp name="Ideal gas heat capacity (RPP)" units="J/kmol/K">
  <eqno value="4" />
  <A value="31940" />
  <B value="1.436" />
  <C value="0.02432" />
  <D value="-0.00001176" />
  <Tmin units="K" value="200" />
  <Tmax units="K" value="1400" />
  </RPPHeatCapacityCp>
<RelativeStaticPermittivity name="Relative static permittivity" units="_">
  <eqno value="120" />
  <A value="-5.158329" />
  <B value="-2900" />
  <C value="-17.4" />
  <Tmin units="K" value="263.0389" />
  <Tmax units="K" value="433.0389" />
  </RelativeStaticPermittivity>
<AntoineVaporPressure name="Antoine" units="Pa">
  <eqno value="10" />
  <A value="21.576" />
  <B value="2013.6" />
  <C value="-12.348" />
  <Tmin units="K" value="224.47" />
  <Tmax units="K" value="334.4" />
  </AntoineVaporPressure>
<LiquidViscosityRPS name="Liquid viscosity (RPS)" units="Pa.s">
  <eqno value="13" />
  <A value="-2.3152" />
  <B value="-0.036018" />
  <C value="0.00004512" />
  <Tmin units="K" value="187.68" />
  <Tmax units="K" value="350" />
  </LiquidViscosityRPS>
<COSTALDVolume name="COSTLD characteristic volume (V*)" units="m3/kmol" value="0.0995289" />
<DiameterLJ name="Lennard Jones diameter" units="m" value="3.49E-10" />
<EnergyLJ name="Lennard Jones energy" units="K" value="343" />
<RacketParameter name="Rackett parameter" units="_" value="0.285" />
<FullerVolume name="Fuller et al. diffusion volume" units="_" value="27.52" />
<MatthiasCopemanC2 name="Mathias-Copeman C2" units="_" value="-0.77777" />
<Parachor name="Parachor" units="kg0.25.m3/s0.5/kmol" value="0.0143" />
<SpecificGravity name="Specific gravity" units="_" value="0.788408" />
<Charge name="Charge" units="_" value="0" />
<CostaldAcentricFactor name="SRK acentric factor" units="_" value="0.0941677" />
<WilsonVolume name="Wilson volume" units="m3/kmol" value="0.0358604" />
<UniquacR name="UNIQUAC r" units="_" value="1.234" />
<UniquacQ name="UNIQUAC q" units="_" value="1.241" />
<UniquacQP name="UNIQUAC q'" units="_" value="1" />
<ApiSrkS2 name="API-SRK s2" units="_" value="0.010699" />
<MatthiasCopemanC3 name="Mathias-Copeman C3" units="_" value="1.84234" />
<ChaoSeaderAcentricFactor name="Chao-Seader acentric factor" units="_" value="0.0941677" />
<ChaoSeaderSolubilityParameter name="Chao-Seader solubility parameter" units="J0.5/m1.5" value="18000.2" />
<ChaoSeaderLiquidVolume name="Chao-Seader liquid volume" units="m3/kmol" value="0.0358604" />
<GCmethod name="PPR78">
  <group id="14" value="1" />
  </GCmethod>
<Umr name="UMR">
  <group id="222" value="1" />
  </Umr>
<CAS name="CAS number" value="7783-06-4" />
<Smiles name="SMILES" value="S " />
</compound>

