<compound>
<LibraryIndex name="Index" value="309" />
<CompoundID name="Name" value="isoprene" />
<StructureFormula name="Structure" value="CH2C(CH3)CHCH2" />
<Family name="Family" value="14" />
<CriticalTemperature name="Critical temperature" units="K" value="484" />
<CriticalPressure name="Critical pressure" units="Pa" value="3850030" />
<CriticalVolume name="Critical volume" units="m3/kmol" value="0.276" />
<CriticalCompressibility name="Critical compressibility factor" units="_" value="0.264" />
<NormalBoilingPointTemperature name="Normal boiling point" units="K" value="307.205" />
<NormalMeltingPointTemperature name="Melting point" units="K" value="127.27" />
<TriplePointTemperature name="Triple point temperature" units="K" value="127.27" />
<TriplePointPressure name="Triple point pressure" units="Pa" value="0.00247682" />
<MolecularWeight name="Molecular weight" units="kg/kmol" value="68.11702" />
<LiquidVolumeAtNormalBoilingPoint name="Liquid molar volume at normal boiling point" units="m3/kmol" value="0.100775" />
<AcentricityFactor name="Acentric factor" units="_" value="0.158323" />
<RadiusOfGyration name="Radius of gyration" units="m" value="3.213E-10" />
<SolubilityParameter name="Solubility parameter" units="J0.5/m1.5" value="15330" />
<DipoleMoment name="Dipole moment" units="Coulomb.m" value="8.3391E-31" />
<VanDerWaalsVolume name="Van der Waals volume" units="m3/kmol" value="0.05103" />
<VanDerWaalsArea name="Van der Waals area" units="m2/kmol" value="7.53E+08" />
<HeatOfFormation name="IG heat of formation" units="J/kmol" value="7.57304E+07" />
<GibbsEnergyOfFormation name="IG Gibbs energy of formation" units="J/kmol" value="1.45896E+08" />
<AbsEntropy name="IG absolute entropy" units="J/kmol/K" value="315641" />
<HeatOfFusionAtMeltingPoint name="Heat of fusion at melting point" units="J/kmol" value="4924570" />
<MatthiasCopemanC1 name="Mathias-Copeman C1" units="_" value="0.58571" />
<HeatOfCombustion name="Standard net heat of combustion LHV" units="J/kmol" value="-2.98424E+09" />
<SolidDensity name="Solid density" units="kmol/m3">
  <eqno value="2" />
  <A value="15.48" />
  <B value="-0.013452" />
  <Tmin units="K" value="50.91" />
  <Tmax units="K" value="127.27" />
  </SolidDensity>
<LiquidDensity name="Liquid density" units="kmol/m3">
  <eqno value="105" />
  <A value="0.95762" />
  <B value="0.265" />
  <C value="484" />
  <D value="0.28587" />
  <Tmin units="K" value="127.27" />
  <Tmax units="K" value="465.22" />
  </LiquidDensity>
<VaporPressure name="Vapour pressure" units="Pa">
  <eqno value="101" />
  <A value="59.64382" />
  <B value="-4808.579" />
  <C value="-5.723014" />
  <D value="3.325462E-06" />
  <E value="2" />
  <Tmin units="K" value="127.27" />
  <Tmax units="K" value="484" />
  </VaporPressure>
<HeatOfVaporization name="Heat of vaporization" units="J/kmol">
  <eqno value="106" />
  <A value="4.7482E+07" />
  <B value="1.7472" />
  <C value="-3.7153" />
  <D value="4.0508" />
  <E value="-1.6134" />
  <Tmin units="K" value="127.27" />
  <Tmax units="K" value="465.22" />
  </HeatOfVaporization>
<SolidHeatCapacityCp name="Solid heat capacity" units="J/kmol/K">
  <eqno value="100" />
  <A value="-16398" />
  <B value="1662.9" />
  <C value="-14.306" />
  <D value="0.058927" />
  <E value="-0.000016497" />
  <Tmin units="K" value="20.39" />
  <Tmax units="K" value="115.35" />
  </SolidHeatCapacityCp>
<LiquidHeatCapacityCp name="Liquid heat capacity" units="J/kmol/K">
  <eqno value="16" />
  <A value="111430" />
  <B value="579.88" />
  <C value="0.11179" />
  <D value="0.042713" />
  <E value="-0.000046991" />
  <Tmin units="K" value="130.32" />
  <Tmax units="K" value="307.2" />
  </LiquidHeatCapacityCp>
<IdealGasHeatCapacityCp name="Ideal gas heat capacity" units="J/kmol/K">
  <eqno value="16" />
  <A value="46067" />
  <B value="-400.72" />
  <C value="12.189" />
  <D value="0.00043981" />
  <E value="-1.4681E-07" />
  <Tmin units="K" value="200" />
  <Tmax units="K" value="1500" />
  </IdealGasHeatCapacityCp>
<SecondVirialCoefficient name="Second virial coefficient" units="m3/kmol">
  <eqno value="104" />
  <A value="0.16606" />
  <B value="-184.38" />
  <C value="-17.394" />
  <D value="5931.3" />
  <E value="-15000" />
  <Tmin units="K" value="242" />
  <Tmax units="K" value="2000" />
  </SecondVirialCoefficient>
<LiquidViscosity name="Liquid viscosity" units="Pa.s">
  <eqno value="101" />
  <A value="-8.3004" />
  <B value="457.06" />
  <C value="-0.22583" />
  <D value="-0.0000048674" />
  <E value="2" />
  <Tmin units="K" value="273" />
  <Tmax units="K" value="343" />
  </LiquidViscosity>
<VaporViscosity name="Vapour viscosity" units="Pa.s">
  <eqno value="102" />
  <A value="5.2484E-07" />
  <B value="0.58768" />
  <C value="291.05" />
  <D value="-6176.5" />
  <Tmin units="K" value="307.2" />
  <Tmax units="K" value="1000" />
  </VaporViscosity>
<LiquidThermalConductivity name="Liquid thermal conductivity" units="W/m/K">
  <eqno value="16" />
  <A value="-0.0093138" />
  <B value="-47.475" />
  <C value="-0.82654" />
  <D value="-0.0037828" />
  <E value="8.2245E-07" />
  <Tmin units="K" value="133.15" />
  <Tmax units="K" value="307.2" />
  </LiquidThermalConductivity>
<VaporThermalConductivity name="Vapour thermal conductivity" units="W/m/K">
  <eqno value="102" />
  <A value="0.0010775" />
  <B value="0.73105" />
  <C value="657.17" />
  <D value="112780" />
  <Tmin units="K" value="127.27" />
  <Tmax units="K" value="1000" />
  </VaporThermalConductivity>
<SurfaceTension name="Surface tension" units="N/m">
  <eqno value="16" />
  <A value="-0.011474" />
  <B value="19.002" />
  <C value="-3.0114" />
  <D value="-0.00040883" />
  <E value="-0.000005756" />
  <Tmin units="K" value="127.27" />
  <Tmax units="K" value="465.22" />
  </SurfaceTension>
<RPPHeatCapacityCp name="Ideal gas heat capacity (RPP)" units="J/kmol/K">
  <eqno value="4" />
  <A value="5017.2" />
  <B value="394.61" />
  <C value="-0.22753" />
  <D value="0.000050803" />
  <Tmin units="K" value="200" />
  <Tmax units="K" value="1500" />
  </RPPHeatCapacityCp>
<AntoineVaporPressure name="Antoine" units="Pa">
  <eqno value="10" />
  <A value="20.515" />
  <B value="2346.3" />
  <C value="-46.175" />
  <Tmin units="K" value="293.36" />
  <Tmax units="K" value="427.67" />
  </AntoineVaporPressure>
<LiquidViscosityRPS name="Liquid viscosity (RPS)" units="Pa.s">
  <eqno value="13" />
  <A value="-4.485" />
  <B value="-0.018048" />
  <C value="0.000015516" />
  <Tmin units="K" value="273" />
  <Tmax units="K" value="307.2" />
  </LiquidViscosityRPS>
<COSTALDVolume name="COSTLD characteristic volume (V*)" units="m3/kmol" value="0.2691" />
<DiameterLJ name="Lennard Jones diameter" units="m" value="6.006525E-10" />
<EnergyLJ name="Lennard Jones energy" units="K" value="261.5367" />
<FullerVolume name="Fuller et al. diffusion volume" units="_" value="97.98" />
<MatthiasCopemanC2 name="Mathias-Copeman C2" units="_" value="0.99129" />
<Parachor name="Parachor" units="kg0.25.m3/s0.5/kmol" value="0.0361" />
<SpecificGravity name="Specific gravity" units="_" value="0.684846" />
<Charge name="Charge" units="_" value="0" />
<CostaldAcentricFactor name="SRK acentric factor" units="_" value="0.17" />
<WilsonVolume name="Wilson volume" units="m3/kmol" value="0.100775" />
<UniquacR name="UNIQUAC r" units="_" value="3.36" />
<UniquacQ name="UNIQUAC q" units="_" value="3.01" />
<ApiSrkS2 name="API-SRK s2" units="_" value="0.023298" />
<MatthiasCopemanC3 name="Mathias-Copeman C3" units="_" value="-1.31457" />
<ChaoSeaderAcentricFactor name="Chao-Seader acentric factor" units="_" value="0.1642" />
<ChaoSeaderSolubilityParameter name="Chao-Seader solubility parameter" units="J0.5/m1.5" value="15333.3" />
<ChaoSeaderLiquidVolume name="Chao-Seader liquid volume" units="m3/kmol" value="0.100775" />
<UnifacVLE name="UNIFAC">
  <group id="1" value="1" />
  <group id="5" value="1" />
  <group id="7" value="1" />
  </UnifacVLE>
<UnifacLLE name="UNIFAC-LLE">
  <group id="1" value="1" />
  <group id="5" value="1" />
  <group id="8" value="1" />
  </UnifacLLE>
<Asog name="ASOG">
  <group id="1" value="1" />
  <group id="5" value="1" />
  <group id="7" value="1" />
  </Asog>
<GCmethod name="PPR78">
  <group id="1" value="1" />
  <group id="2" value="2" />
  <group id="18" value="1" />
  <group id="19" value="1" />
  </GCmethod>
<Umr name="UMR">
  <group id="1" value="1" />
  <group id="5" value="1" />
  <group id="7" value="1" />
  </Umr>
<ModifiedUnifac name="Modified UNIFAC">
  <group id="1" value="1" />
  <group id="5" value="1" />
  <group id="7" value="1" />
  </ModifiedUnifac>
<CAS name="CAS number" value="78-79-5" />
<Smiles name="SMILES" value="C=C(C)C=C" />
</compound>

