<compound>
<LibraryIndex name="Index" value="1409" />
<CompoundID name="Name" value="isopropyl butyl ether" />
<StructureFormula name="Structure" value="C4H9OCH(CH3)2" />
<Family name="Family" value="61" />
<CriticalTemperature name="Critical temperature" units="K" value="549" />
<CriticalPressure name="Critical pressure" units="Pa" value="2740000" />
<CriticalVolume name="Critical volume" units="m3/kmol" value="0.435" />
<CriticalCompressibility name="Critical compressibility factor" units="_" value="0.261" />
<NormalBoilingPointTemperature name="Normal boiling point" units="K" value="378.15" />
<NormalMeltingPointTemperature name="Melting point" units="K" value="180" />
<TriplePointTemperature name="Triple point temperature" units="K" value="180" />
<TriplePointPressure name="Triple point pressure" units="Pa" value="0.0337504" />
<MolecularWeight name="Molecular weight" units="kg/kmol" value="116.2013" />
<LiquidVolumeAtNormalBoilingPoint name="Liquid molar volume at normal boiling point" units="m3/kmol" value="0.155791" />
<AcentricityFactor name="Acentric factor" units="_" value="0.403229" />
<RadiusOfGyration name="Radius of gyration" units="m" value="4.475E-10" />
<SolubilityParameter name="Solubility parameter" units="J0.5/m1.5" value="15260" />
<DipoleMoment name="Dipole moment" units="Coulomb.m" value="4.24E-30" />
<VanDerWaalsVolume name="Van der Waals volume" units="m3/kmol" value="0.08218" />
<VanDerWaalsArea name="Van der Waals area" units="m2/kmol" value="1.158E+09" />
<HeatOfFormation name="IG heat of formation" units="J/kmol" value="-3.269E+08" />
<GibbsEnergyOfFormation name="IG Gibbs energy of formation" units="J/kmol" value="-1.071E+08" />
<AbsEntropy name="IG absolute entropy" units="J/kmol/K" value="450200" />
<HeatOfFusionAtMeltingPoint name="Heat of fusion at melting point" units="J/kmol" value="1.22E+07" />
<HeatOfCombustion name="Standard net heat of combustion LHV" units="J/kmol" value="-4.324E+09" />
<SolidDensity name="Solid density" units="kmol/m3">
  <eqno value="100" />
  <A value="9.3504" />
  <B value="-0.0064933" />
  <C value="0" />
  <D value="0" />
  <E value="0" />
  <Tmin units="K" value="72" />
  <Tmax units="K" value="180" />
  </SolidDensity>
<LiquidDensity name="Liquid density" units="kmol/m3">
  <eqno value="105" />
  <A value="0.62258" />
  <B value="0.27082" />
  <C value="549" />
  <D value="0.30735" />
  <Tmin units="K" value="180" />
  <Tmax units="K" value="549" />
  </LiquidDensity>
<VaporPressure name="Vapour pressure" units="Pa">
  <eqno value="101" />
  <A value="85.99635" />
  <B value="-7315.405" />
  <C value="-9.426402" />
  <D value="5.236755E-06" />
  <E value="2" />
  <Tmin units="K" value="180" />
  <Tmax units="K" value="549" />
  </VaporPressure>
<HeatOfVaporization name="Heat of vaporization" units="J/kmol">
  <eqno value="106" />
  <A value="5.2177E+07" />
  <B value="0.38027" />
  <C value="0" />
  <D value="0" />
  <E value="0" />
  <Tmin units="K" value="180" />
  <Tmax units="K" value="549" />
  </HeatOfVaporization>
<SolidHeatCapacityCp name="Solid heat capacity" units="J/kmol/K">
  <eqno value="1" />
  <A value="210610" />
  <Tmin units="K" value="0" />
  <Tmax units="K" value="549" />
  </SolidHeatCapacityCp>
<LiquidHeatCapacityCp name="Liquid heat capacity" units="J/kmol/K">
  <eqno value="16" />
  <A value="200760" />
  <B value="-0.77126" />
  <C value="8.116" />
  <D value="0.0093067" />
  <E value="-0.00000176" />
  <Tmin units="K" value="180" />
  <Tmax units="K" value="411.75" />
  </LiquidHeatCapacityCp>
<IdealGasHeatCapacityCp name="Ideal gas heat capacity" units="J/kmol/K">
  <eqno value="16" />
  <A value="76973" />
  <B value="-443.41" />
  <C value="12.925" />
  <D value="0.00032949" />
  <E value="-1.1644E-07" />
  <Tmin units="K" value="180" />
  <Tmax units="K" value="1200" />
  </IdealGasHeatCapacityCp>
<SecondVirialCoefficient name="Second virial coefficient" units="m3/kmol">
  <eqno value="104" />
  <A value="0.28425" />
  <B value="-304.18" />
  <C value="-51.293" />
  <D value="-5929.1" />
  <E value="1171.2" />
  <Tmin units="K" value="274.5" />
  <Tmax units="K" value="1500" />
  </SecondVirialCoefficient>
<LiquidViscosity name="Liquid viscosity" units="Pa.s">
  <eqno value="101" />
  <A value="-11.496" />
  <B value="1171.6" />
  <C value="0.0066892" />
  <D value="-1.6659E-08" />
  <E value="2" />
  <Tmin units="K" value="180" />
  <Tmax units="K" value="473" />
  </LiquidViscosity>
<VaporViscosity name="Vapour viscosity" units="Pa.s">
  <eqno value="102" />
  <A value="0.000000176" />
  <B value="0.70157" />
  <C value="181.76" />
  <D value="-5946.4" />
  <Tmin units="K" value="180" />
  <Tmax units="K" value="1000" />
  </VaporViscosity>
<LiquidThermalConductivity name="Liquid thermal conductivity" units="W/m/K">
  <eqno value="16" />
  <A value="-0.10095" />
  <B value="17.355" />
  <C value="-1.4146" />
  <D value="-0.000082157" />
  <E value="-0.0000014735" />
  <Tmin units="K" value="164.7" />
  <Tmax units="K" value="439.2" />
  </LiquidThermalConductivity>
<VaporThermalConductivity name="Vapour thermal conductivity" units="W/m/K">
  <eqno value="102" />
  <A value="0.00016013" />
  <B value="0.96562" />
  <C value="574.46" />
  <D value="18419" />
  <Tmin units="K" value="180" />
  <Tmax units="K" value="1000" />
  </VaporThermalConductivity>
<SurfaceTension name="Surface tension" units="N/m">
  <eqno value="16" />
  <A value="-0.0073125" />
  <B value="68.441" />
  <C value="-3.6554" />
  <D value="0.0016795" />
  <E value="-0.0000077692" />
  <Tmin units="K" value="180" />
  <Tmax units="K" value="549" />
  </SurfaceTension>
<RPPHeatCapacityCp name="Ideal gas heat capacity (RPP)" units="J/kmol/K">
  <eqno value="4" />
  <A value="-16950" />
  <B value="793.92" />
  <C value="-0.50277" />
  <D value="0.00012845" />
  <Tmin units="K" value="180" />
  <Tmax units="K" value="1200" />
  </RPPHeatCapacityCp>
<AntoineVaporPressure name="Antoine" units="Pa">
  <eqno value="10" />
  <A value="20.893" />
  <B value="2954" />
  <C value="-66.624" />
  <Tmin units="K" value="335.37" />
  <Tmax units="K" value="490.74" />
  </AntoineVaporPressure>
<LiquidViscosityRPS name="Liquid viscosity (RPS)" units="Pa.s">
  <eqno value="12" />
  <A value="-2.4944" />
  <B value="-0.016265" />
  <Tmin units="K" value="180" />
  <Tmax units="K" value="382.3" />
  </LiquidViscosityRPS>
<COSTALDVolume name="COSTLD characteristic volume (V*)" units="m3/kmol" value="0.447711" />
<DiameterLJ name="Lennard Jones diameter" units="m" value="7.086625E-10" />
<EnergyLJ name="Lennard Jones energy" units="K" value="284.7026" />
<RacketParameter name="Rackett parameter" units="_" value="0.261" />
<FullerVolume name="Fuller et al. diffusion volume" units="_" value="154.37" />
<Parachor name="Parachor" units="kg0.25.m3/s0.5/kmol" value="0.0580587" />
<SpecificGravity name="Specific gravity" units="_" value="0.755446" />
<Charge name="Charge" units="_" value="0" />
<CostaldAcentricFactor name="SRK acentric factor" units="_" value="0.403229" />
<WilsonVolume name="Wilson volume" units="m3/kmol" value="0.155791" />
<UniquacR name="UNIQUAC r" units="_" value="5.4173" />
<UniquacQ name="UNIQUAC q" units="_" value="4.632" />
<ChaoSeaderAcentricFactor name="Chao-Seader acentric factor" units="_" value="0.403229" />
<ChaoSeaderSolubilityParameter name="Chao-Seader solubility parameter" units="J0.5/m1.5" value="15260" />
<ChaoSeaderLiquidVolume name="Chao-Seader liquid volume" units="m3/kmol" value="0.155791" />
<UnifacVLE name="UNIFAC">
  <group id="1" value="3" />
  <group id="2" value="2" />
  <group id="3" value="1" />
  <group id="26" value="1" />
  </UnifacVLE>
<UnifacLLE name="UNIFAC-LLE">
  <group id="1" value="3" />
  <group id="2" value="2" />
  <group id="3" value="1" />
  <group id="28" value="1" />
  </UnifacLLE>
<Asog name="ASOG">
  <group id="1" value="3" />
  <group id="2" value="2" />
  <group id="3" value="1" />
  <group id="21" value="1" />
  </Asog>
<Umr name="UMR">
  <group id="1" value="3" />
  <group id="2" value="2" />
  <group id="3" value="1" />
  <group id="26" value="1" />
  </Umr>
<ModifiedUnifac name="Modified UNIFAC">
  <group id="1" value="3" />
  <group id="2" value="2" />
  <group id="3" value="1" />
  <group id="25" value="1" />
  </ModifiedUnifac>
<CAS name="CAS number" value="1860-27-1" />
<Smiles name="SMILES" value="CCCCOC(C)C" />
</compound>

