<compound>
<LibraryIndex name="Index" value="1810" />
<CompoundID name="Name" value="isopropyl mercaptan" />
<StructureFormula name="Structure" value="(CH3)2CHSH" />
<Family name="Family" value="41" />
<CriticalTemperature name="Critical temperature" units="K" value="517.3" />
<CriticalPressure name="Critical pressure" units="Pa" value="4750000" />
<CriticalVolume name="Critical volume" units="m3/kmol" value="0.254" />
<CriticalCompressibility name="Critical compressibility factor" units="_" value="0.281" />
<NormalBoilingPointTemperature name="Normal boiling point" units="K" value="325.75" />
<NormalMeltingPointTemperature name="Melting point" units="K" value="142.61" />
<TriplePointTemperature name="Triple point temperature" units="K" value="142.64" />
<TriplePointPressure name="Triple point pressure" units="Pa" value="0.00973089" />
<MolecularWeight name="Molecular weight" units="kg/kmol" value="76.16061" />
<LiquidVolumeAtNormalBoilingPoint name="Liquid molar volume at normal boiling point" units="m3/kmol" value="0.0941865" />
<AcentricityFactor name="Acentric factor" units="_" value="0.21381" />
<RadiusOfGyration name="Radius of gyration" units="m" value="2.993E-10" />
<SolubilityParameter name="Solubility parameter" units="J0.5/m1.5" value="16970" />
<DipoleMoment name="Dipole moment" units="Coulomb.m" value="5.47E-30" />
<VanDerWaalsVolume name="Van der Waals volume" units="m3/kmol" value="0.04893" />
<VanDerWaalsArea name="Van der Waals area" units="m2/kmol" value="7.1E+08" />
<HeatOfFormation name="IG heat of formation" units="J/kmol" value="-7.59E+07" />
<GibbsEnergyOfFormation name="IG Gibbs energy of formation" units="J/kmol" value="-2180000" />
<AbsEntropy name="IG absolute entropy" units="J/kmol/K" value="324300" />
<HeatOfFusionAtMeltingPoint name="Heat of fusion at melting point" units="J/kmol" value="5736000" />
<HeatOfCombustion name="Standard net heat of combustion LHV" units="J/kmol" value="-2.3684E+09" />
<SolidDensity name="Solid density" units="kmol/m3">
  <eqno value="2" />
  <A value="0" />
  <B value="0" />
  <C value="0" />
  <D value="0" />
  <E value="0" />
  <Tmin units="K" value="0" />
  <Tmax units="K" value="1" />
  </SolidDensity>
<LiquidDensity name="Liquid density" units="kmol/m3">
  <eqno value="105" />
  <A value="1.093001" />
  <B value="0.27762" />
  <C value="517" />
  <D value="0.29781" />
  <E value="0" />
  <Tmin units="K" value="142.61" />
  <Tmax units="K" value="497.2953" />
  </LiquidDensity>
<VaporPressure name="Vapour pressure" units="Pa">
  <eqno value="101" />
  <A value="52.49398" />
  <B value="-5018.813" />
  <C value="-4.414151" />
  <D value="1.969036E-13" />
  <E value="2" />
  <Tmin units="K" value="142.61" />
  <Tmax units="K" value="517.0001" />
  </VaporPressure>
<HeatOfVaporization name="Heat of vaporization" units="J/kmol">
  <eqno value="106" />
  <A value="4.07186E+07" />
  <B value="0.189905" />
  <C value="0.420769" />
  <D value="-0.0231137" />
  <E value="-0.258009" />
  <Tmin units="K" value="142.61" />
  <Tmax units="K" value="517.0001" />
  </HeatOfVaporization>
<SolidHeatCapacityCp name="Solid heat capacity" units="J/kmol/K">
  <eqno value="4" />
  <A value="-18220" />
  <B value="1882.6" />
  <C value="-19.293" />
  <D value="0.0884" />
  <E value="0" />
  <Tmin units="K" value="14.62" />
  <Tmax units="K" value="110.2699" />
  </SolidHeatCapacityCp>
<LiquidHeatCapacityCp name="Liquid heat capacity" units="J/kmol/K">
  <eqno value="16" />
  <A value="-4182.09" />
  <B value="11.57821" />
  <C value="11.69322" />
  <D value="0.0000133303" />
  <E value="0.0000020152" />
  <Tmin units="K" value="142.61" />
  <Tmax units="K" value="350" />
  </LiquidHeatCapacityCp>
<IdealGasHeatCapacityCp name="Ideal gas heat capacity" units="J/kmol/K">
  <eqno value="16" />
  <A value="68588.92" />
  <B value="-673.2911" />
  <C value="12.50044" />
  <D value="1.486465E-06" />
  <E value="-1.964897E-08" />
  <Tmin units="K" value="200" />
  <Tmax units="K" value="1500" />
  </IdealGasHeatCapacityCp>
<SecondVirialCoefficient name="Second virial coefficient" units="m3/kmol">
  <eqno value="104" />
  <A value="0.153422" />
  <B value="-199.5338" />
  <C value="-18.99653" />
  <D value="1144.562" />
  <E value="-4039.504" />
  <Tmin units="K" value="257" />
  <Tmax units="K" value="1542" />
  </SecondVirialCoefficient>
<LiquidViscosity name="Liquid viscosity" units="Pa.s">
  <eqno value="16" />
  <A value="0.0000158085" />
  <B value="630.9957" />
  <C value="-8.670452" />
  <D value="-0.006493" />
  <E value="5.676279E-06" />
  <Tmin units="K" value="142.61" />
  <Tmax units="K" value="417" />
  </LiquidViscosity>
<VaporViscosity name="Vapour viscosity" units="Pa.s">
  <eqno value="16" />
  <A value="2.562672E-06" />
  <B value="-300.3637" />
  <C value="-11.49051" />
  <D value="0.00155043" />
  <E value="-4.080467E-07" />
  <Tmin units="K" value="142.61" />
  <Tmax units="K" value="1000" />
  </VaporViscosity>
<LiquidThermalConductivity name="Liquid thermal conductivity" units="W/m/K">
  <eqno value="16" />
  <A value="0.019346" />
  <B value="8.361977" />
  <C value="-1.76982" />
  <D value="-0.000539416" />
  <E value="-3.287583E-06" />
  <Tmin units="K" value="142.61" />
  <Tmax units="K" value="325.71" />
  </LiquidThermalConductivity>
<VaporThermalConductivity name="Vapour thermal conductivity" units="W/m/K">
  <eqno value="102" />
  <A value="0.00018367" />
  <B value="0.9627" />
  <C value="646.01" />
  <D value="0" />
  <E value="0" />
  <Tmin units="K" value="142.64" />
  <Tmax units="K" value="1000" />
  </VaporThermalConductivity>
<SurfaceTension name="Surface tension" units="N/m">
  <eqno value="16" />
  <A value="-0.0111776" />
  <B value="26.63325" />
  <C value="-3.053494" />
  <D value="0.000331969" />
  <E value="-0.0000062853" />
  <Tmin units="K" value="142.61" />
  <Tmax units="K" value="517.0001" />
  </SurfaceTension>
<RPPHeatCapacityCp name="Ideal gas heat capacity (RPP)" units="J/kmol/K">
  <eqno value="4" />
  <A value="46207.41" />
  <B value="65.01495" />
  <C value="0.499267" />
  <D value="-0.000522701" />
  <E value="0" />
  <Tmin units="K" value="273.15" />
  <Tmax units="K" value="487.2" />
  </RPPHeatCapacityCp>
<AntoineVaporPressure name="Antoine" units="Pa">
  <eqno value="10" />
  <A value="21.08291" />
  <B value="2786.592" />
  <C value="-34.12406" />
  <D value="0" />
  <E value="0" />
  <Tmin units="K" value="168.7" />
  <Tmax units="K" value="457.97" />
  </AntoineVaporPressure>
<LiquidViscosityRPS name="Liquid viscosity (RPS)" units="Pa.s">
  <eqno value="10" />
  <A value="-10.66501" />
  <B value="-828.3052" />
  <C value="4.074317" />
  <D value="0" />
  <E value="0" />
  <Tmin units="K" value="142.61" />
  <Tmax units="K" value="323.15" />
  </LiquidViscosityRPS>
<Parachor name="Parachor" units="kg0.25.m3/s0.5/kmol" value="0.0360599" />
<SpecificGravity name="Specific gravity" units="_" value="0.81887" />
<UniquacR name="UNIQUAC r" units="_" value="3.225445" />
<UniquacQ name="UNIQUAC q" units="_" value="2.84" />
<GCmethod name="PPR78">
  <group id="1" value="2" />
  <group id="3" value="1" />
  <group id="15" value="1" />
  </GCmethod>
<CAS name="CAS number" value="75-33-2" />
<Smiles name="SMILES" value="CC(C)S" />
</compound>

