<compound>
<LibraryIndex name="Index" value="1104" />
<CompoundID name="Name" value="isopropanol" />
<StructureFormula name="Structure" value="CH3CH(OH)CH3" />
<Family name="Family" value="46" />
<CriticalTemperature name="Critical temperature" units="K" value="508.3" />
<CriticalPressure name="Critical pressure" units="Pa" value="4762000" />
<CriticalVolume name="Critical volume" units="m3/kmol" value="0.22" />
<CriticalCompressibility name="Critical compressibility factor" units="_" value="0.248" />
<NormalBoilingPointTemperature name="Normal boiling point" units="K" value="355.39" />
<NormalMeltingPointTemperature name="Melting point" units="K" value="185.28" />
<TriplePointTemperature name="Triple point temperature" units="K" value="185.28" />
<TriplePointPressure name="Triple point pressure" units="Pa" value="0.0363946" />
<MolecularWeight name="Molecular weight" units="kg/kmol" value="60.09502" />
<LiquidVolumeAtNormalBoilingPoint name="Liquid molar volume at normal boiling point" units="m3/kmol" value="0.07692" />
<AcentricityFactor name="Acentric factor" units="_" value="0.665" />
<RadiusOfGyration name="Radius of gyration" units="m" value="2.807E-10" />
<SolubilityParameter name="Solubility parameter" units="J0.5/m1.5" value="23420" />
<DipoleMoment name="Dipole moment" units="Coulomb.m" value="5.54E-30" />
<VanDerWaalsVolume name="Van der Waals volume" units="m3/kmol" value="0.04216" />
<VanDerWaalsArea name="Van der Waals area" units="m2/kmol" value="6.27E+08" />
<HeatOfFormation name="IG heat of formation" units="J/kmol" value="-2.727E+08" />
<GibbsEnergyOfFormation name="IG Gibbs energy of formation" units="J/kmol" value="-1.7347E+08" />
<AbsEntropy name="IG absolute entropy" units="J/kmol/K" value="309200" />
<HeatOfFusionAtMeltingPoint name="Heat of fusion at melting point" units="J/kmol" value="5410000" />
<MatthiasCopemanC1 name="Mathias-Copeman C1" units="_" value="1.1433" />
<HeatOfCombustion name="Standard net heat of combustion LHV" units="J/kmol" value="-1.83E+09" />
<SolidDensity name="Solid density" units="kmol/m3">
  <eqno value="2" />
  <A value="18.573" />
  <B value="-0.011338" />
  <Tmin units="K" value="74.11" />
  <Tmax units="K" value="185.28" />
  </SolidDensity>
<LiquidDensity name="Liquid density" units="kmol/m3">
  <eqno value="105" />
  <A value="1.1898" />
  <B value="0.26648" />
  <C value="508.3" />
  <D value="0.23986" />
  <Tmin units="K" value="185.28" />
  <Tmax units="K" value="508.3" />
  </LiquidDensity>
<VaporPressure name="Vapour pressure" units="Pa">
  <eqno value="101" />
  <A value="77.70856" />
  <B value="-7630.115" />
  <C value="-7.63517" />
  <D value="9.965114E-07" />
  <E value="2" />
  <Tmin units="K" value="185.28" />
  <Tmax units="K" value="508.3" />
  </VaporPressure>
<HeatOfVaporization name="Heat of vaporization" units="J/kmol">
  <eqno value="106" />
  <A value="1.100995E+08" />
  <B value="4.1961" />
  <C value="-10.70959" />
  <D value="11.69444" />
  <E value="-4.625499" />
  <Tmin units="K" value="185.28" />
  <Tmax units="K" value="508.3" />
  </HeatOfVaporization>
<SolidHeatCapacityCp name="Solid heat capacity" units="J/kmol/K">
  <eqno value="100" />
  <A value="-5999" />
  <B value="747.79" />
  <C value="1.6541" />
  <D value="-0.049958" />
  <E value="0.0001963" />
  <Tmin units="K" value="25" />
  <Tmax units="K" value="185.26" />
  </SolidHeatCapacityCp>
<LiquidHeatCapacityCp name="Liquid heat capacity" units="J/kmol/K">
  <eqno value="16" />
  <A value="-188260" />
  <B value="277.99" />
  <C value="9.4459" />
  <D value="0.010702" />
  <E value="-0.0000091964" />
  <Tmin units="K" value="185.26" />
  <Tmax units="K" value="480" />
  </LiquidHeatCapacityCp>
<IdealGasHeatCapacityCp name="Ideal gas heat capacity" units="J/kmol/K">
  <eqno value="16" />
  <A value="52738" />
  <B value="-555.28" />
  <C value="12.347" />
  <D value="0.000094247" />
  <E value="-4.5945E-08" />
  <Tmin units="K" value="150" />
  <Tmax units="K" value="1500" />
  </IdealGasHeatCapacityCp>
<SecondVirialCoefficient name="Second virial coefficient" units="m3/kmol">
  <eqno value="104" />
  <A value="0.085006" />
  <B value="-95.666" />
  <C value="-21.924" />
  <D value="-3475.4" />
  <E value="-29704" />
  <Tmin units="K" value="279" />
  <Tmax units="K" value="2000" />
  </SecondVirialCoefficient>
<LiquidViscosity name="Liquid viscosity" units="Pa.s">
  <eqno value="101" />
  <A value="-7.4407" />
  <B value="2259.7" />
  <C value="-1.1149" />
  <D value="0.0000002963" />
  <E value="2" />
  <Tmin units="K" value="187.35" />
  <Tmax units="K" value="408" />
  </LiquidViscosity>
<VaporViscosity name="Vapour viscosity" units="Pa.s">
  <eqno value="102" />
  <A value="1.9931E-07" />
  <B value="0.72329" />
  <C value="178.01" />
  <D value="-15.318" />
  <Tmin units="K" value="185.28" />
  <Tmax units="K" value="1000" />
  </VaporViscosity>
<LiquidThermalConductivity name="Liquid thermal conductivity" units="W/m/K">
  <eqno value="16" />
  <A value="-0.15761" />
  <B value="49.41" />
  <C value="-1.6579" />
  <D value="0.0019566" />
  <E value="-0.0000034939" />
  <Tmin units="K" value="183.65" />
  <Tmax units="K" value="410.15" />
  </LiquidThermalConductivity>
<VaporThermalConductivity name="Vapour thermal conductivity" units="W/m/K">
  <eqno value="102" />
  <A value="0.0028843" />
  <B value="0.91609" />
  <C value="11082" />
  <D value="-222500" />
  <Tmin units="K" value="185.28" />
  <Tmax units="K" value="995.41" />
  </VaporThermalConductivity>
<SurfaceTension name="Surface tension" units="N/m">
  <eqno value="16" />
  <A value="-0.0068771" />
  <B value="-355.64" />
  <C value="0.079386" />
  <D value="-0.0097522" />
  <E value="0.0000049723" />
  <Tmin units="K" value="273.15" />
  <Tmax units="K" value="355.41" />
  </SurfaceTension>
<RPPHeatCapacityCp name="Ideal gas heat capacity (RPP)" units="J/kmol/K">
  <eqno value="100" />
  <A value="27720" />
  <B value="156.75" />
  <C value="0.30298" />
  <D value="-0.00050843" />
  <E value="2.1144E-07" />
  <Tmin units="K" value="50" />
  <Tmax units="K" value="1000" />
  </RPPHeatCapacityCp>
<RelativeStaticPermittivity name="Relative static permittivity" units="_">
  <eqno value="120" />
  <A value="-22.81" />
  <B value="-10000" />
  <C value="-60.54" />
  <Tmin units="K" value="275" />
  <Tmax units="K" value="445" />
  </RelativeStaticPermittivity>
<AntoineVaporPressure name="Antoine" units="Pa">
  <eqno value="10" />
  <A value="22.151" />
  <B value="2836.6" />
  <C value="-88.244" />
  <Tmin units="K" value="305.37" />
  <Tmax units="K" value="457.3" />
  </AntoineVaporPressure>
<LiquidViscosityRPS name="Liquid viscosity (RPS)" units="Pa.s">
  <eqno value="13" />
  <A value="14.129" />
  <B value="-0.10641" />
  <C value="0.00012806" />
  <Tmin units="K" value="187.35" />
  <Tmax units="K" value="355.41" />
  </LiquidViscosityRPS>
<COSTALDVolume name="COSTLD characteristic volume (V*)" units="m3/kmol" value="0.23883" />
<DiameterLJ name="Lennard Jones diameter" units="m" value="4.64E-10" />
<EnergyLJ name="Lennard Jones energy" units="K" value="518" />
<RacketParameter name="Rackett parameter" units="_" value="0.2493" />
<FullerVolume name="Fuller et al. diffusion volume" units="_" value="72.28999" />
<MatthiasCopemanC2 name="Mathias-Copeman C2" units="_" value="3.2725" />
<Parachor name="Parachor" units="kg0.25.m3/s0.5/kmol" value="0.0293033" />
<SpecificGravity name="Specific gravity" units="_" value="0.786" />
<Charge name="Charge" units="_" value="0" />
<CostaldAcentricFactor name="SRK acentric factor" units="_" value="0.66368" />
<WilsonVolume name="Wilson volume" units="m3/kmol" value="0.0768988" />
<UniquacR name="UNIQUAC r" units="_" value="2.78" />
<UniquacQ name="UNIQUAC q" units="_" value="2.51" />
<UniquacQP name="UNIQUAC q'" units="_" value="0.89" />
<ApiSrkS1 name="API-SRK s1" units="_" value="0.140334" />
<ApiSrkS2 name="API-SRK s2" units="_" value="1.269059" />
<MatthiasCopemanC3 name="Mathias-Copeman C3" units="_" value="-7.9945" />
<ChaoSeaderAcentricFactor name="Chao-Seader acentric factor" units="_" value="0.7238" />
<ChaoSeaderSolubilityParameter name="Chao-Seader solubility parameter" units="J0.5/m1.5" value="23408.3" />
<ChaoSeaderLiquidVolume name="Chao-Seader liquid volume" units="m3/kmol" value="0.0768988" />
<UnifacVLE name="UNIFAC">
  <group id="1" value="2" />
  <group id="3" value="1" />
  <group id="15" value="1" />
  </UnifacVLE>
<UnifacLLE name="UNIFAC-LLE">
  <group id="16" value="1" />
  </UnifacLLE>
<Asog name="ASOG">
  <group id="1" value="2" />
  <group id="3" value="1" />
  <group id="15" value="1" />
  </Asog>
<GCmethod name="PPR78">
  <group id="1" value="2" />
  <group id="3" value="1" />
  <group id="41" value="1" />
  </GCmethod>
<Umr name="UMR">
  <group id="1" value="2" />
  <group id="3" value="1" />
  <group id="15" value="1" />
  </Umr>
<ModifiedUnifac name="Modified UNIFAC">
  <group id="1" value="2" />
  <group id="3" value="1" />
  <group id="14" value="1" />
  </ModifiedUnifac>
<CAS name="CAS number" value="67-63-0" />
<Smiles name="SMILES" value="CC(O)C" />
</compound>

