<compound>
<LibraryIndex name="Index" value="920" />
<CompoundID name="Name" value="krypton" />
<StructureFormula name="Structure" value="Kr" />
<Family name="Family" value="24" />
<CriticalTemperature name="Critical temperature" units="K" value="209.4" />
<CriticalPressure name="Critical pressure" units="Pa" value="5500000" />
<CriticalVolume name="Critical volume" units="m3/kmol" value="0.0912" />
<CriticalCompressibility name="Critical compressibility factor" units="_" value="0.288" />
<NormalBoilingPointTemperature name="Normal boiling point" units="K" value="119.74" />
<NormalMeltingPointTemperature name="Melting point" units="K" value="115.77" />
<TriplePointTemperature name="Triple point temperature" units="K" value="115.78" />
<TriplePointPressure name="Triple point pressure" units="Pa" value="73149.9" />
<MolecularWeight name="Molecular weight" units="kg/kmol" value="83.798" />
<LiquidVolumeAtNormalBoilingPoint name="Liquid molar volume at normal boiling point" units="m3/kmol" value="0.03463" />
<AcentricityFactor name="Acentric factor" units="_" value="0.005" />
<RadiusOfGyration name="Radius of gyration" units="m" value="0" />
<SolubilityParameter name="Solubility parameter" units="J0.5/m1.5" value="15280" />
<DipoleMoment name="Dipole moment" units="Coulomb.m" value="0" />
<HeatOfFormation name="IG heat of formation" units="J/kmol" value="0" />
<GibbsEnergyOfFormation name="IG Gibbs energy of formation" units="J/kmol" value="0" />
<AbsEntropy name="IG absolute entropy" units="J/kmol/K" value="163975" />
<HeatOfFusionAtMeltingPoint name="Heat of fusion at melting point" units="J/kmol" value="1640130" />
<MatthiasCopemanC1 name="Mathias-Copeman C1" units="_" value="0.47685" />
<HeatOfCombustion name="Standard net heat of combustion LHV" units="J/kmol" value="0" />
<SolidDensity name="Solid density" units="kmol/m3">
  <eqno value="2" />
  <A value="33.723" />
  <B value="-1.7802E-08" />
  <C value="0" />
  <D value="0" />
  <E value="0" />
  <Tmin units="K" value="115.76" />
  <Tmax units="K" value="125.26" />
  </SolidDensity>
<LiquidDensity name="Liquid density" units="kmol/m3">
  <eqno value="105" />
  <A value="2.5742" />
  <B value="0.26395" />
  <C value="209.4" />
  <D value="0.25018" />
  <Tmin units="K" value="115.76" />
  <Tmax units="K" value="209.39" />
  </LiquidDensity>
<VaporPressure name="Vapour pressure" units="Pa">
  <eqno value="101" />
  <A value="48.208" />
  <B value="-1609" />
  <C value="-4.9593" />
  <D value="0.0000342" />
  <E value="2" />
  <Tmin units="K" value="109.95" />
  <Tmax units="K" value="209.4" />
  </VaporPressure>
<HeatOfVaporization name="Heat of vaporization" units="J/kmol">
  <eqno value="106" />
  <A value="1.7515E+07" />
  <B value="2.6595" />
  <C value="-6.0031" />
  <D value="6.068" />
  <E value="-2.2776" />
  <Tmin units="K" value="115.76" />
  <Tmax units="K" value="209.39" />
  </HeatOfVaporization>
<LiquidHeatCapacityCp name="Liquid heat capacity" units="J/kmol/K">
  <eqno value="16" />
  <A value="36193" />
  <B value="105.13" />
  <C value="3.9876" />
  <D value="0.048456" />
  <E value="-0.0001134" />
  <Tmin units="K" value="115.78" />
  <Tmax units="K" value="125.28" />
  </LiquidHeatCapacityCp>
<IdealGasHeatCapacityCp name="Ideal gas heat capacity" units="J/kmol/K">
  <eqno value="16" />
  <A value="20754" />
  <B value="0" />
  <C value="0" />
  <D value="0" />
  <E value="0" />
  <Tmin units="K" value="10" />
  <Tmax units="K" value="1500" />
  </IdealGasHeatCapacityCp>
<SecondVirialCoefficient name="Second virial coefficient" units="m3/kmol">
  <eqno value="104" />
  <A value="0.047877" />
  <B value="-27.168" />
  <C value="-0.22682" />
  <D value="-0.035005" />
  <E value="0.047036" />
  <Tmin units="K" value="100" />
  <Tmax units="K" value="1073.15" />
  </SecondVirialCoefficient>
<LiquidViscosity name="Liquid viscosity" units="Pa.s">
  <eqno value="101" />
  <A value="-7.7422" />
  <B value="-0.3975" />
  <C value="-0.00054036" />
  <D value="-9.2221E-08" />
  <E value="2" />
  <Tmin units="K" value="119.75" />
  <Tmax units="K" value="129.25" />
  </LiquidViscosity>
<VaporViscosity name="Vapour viscosity" units="Pa.s">
  <eqno value="102" />
  <A value="0.0000018282" />
  <B value="0.5384" />
  <C value="165.83" />
  <D value="-1432.5" />
  <Tmin units="K" value="100" />
  <Tmax units="K" value="1773.15" />
  </VaporViscosity>
<LiquidThermalConductivity name="Liquid thermal conductivity" units="W/m/K">
  <eqno value="16" />
  <A value="-0.22624" />
  <B value="-10.133" />
  <C value="-0.77044" />
  <D value="-0.0023081" />
  <E value="-0.0000013009" />
  <Tmin units="K" value="115" />
  <Tmax units="K" value="209.35" />
  </LiquidThermalConductivity>
<VaporThermalConductivity name="Vapour thermal conductivity" units="W/m/K">
  <eqno value="102" />
  <A value="0.00075369" />
  <B value="0.52925" />
  <C value="198.58" />
  <D value="-4150.2" />
  <Tmin units="K" value="100" />
  <Tmax units="K" value="2000" />
  </VaporThermalConductivity>
<SurfaceTension name="Surface tension" units="N/m">
  <eqno value="16" />
  <A value="-0.0038578" />
  <B value="222.03" />
  <C value="-8.5239" />
  <D value="0.041178" />
  <E value="-0.00015364" />
  <Tmin units="K" value="115.78" />
  <Tmax units="K" value="209.35" />
  </SurfaceTension>
<RPPHeatCapacityCp name="Ideal gas heat capacity (RPP)" units="J/kmol/K">
  <eqno value="100" />
  <A value="20786" />
  <B value="0" />
  <C value="0" />
  <D value="0" />
  <E value="0" />
  <Tmin units="K" value="50" />
  <Tmax units="K" value="1000" />
  </RPPHeatCapacityCp>
<AntoineVaporPressure name="Antoine" units="Pa">
  <eqno value="10" />
  <A value="20.332" />
  <B value="977.58" />
  <C value="-8.874" />
  <Tmin units="K" value="125.94" />
  <Tmax units="K" value="184.73" />
  </AntoineVaporPressure>
<LiquidViscosityRPS name="Liquid viscosity (RPS)" units="Pa.s">
  <eqno value="12" />
  <A value="-7.7494" />
  <B value="-1.046E-09" />
  <Tmin units="K" value="119.75" />
  <Tmax units="K" value="129.25" />
  </LiquidViscosityRPS>
<COSTALDVolume name="COSTLD characteristic volume (V*)" units="m3/kmol" value="0.0912" />
<DiameterLJ name="Lennard Jones diameter" units="m" value="3.740867E-10" />
<EnergyLJ name="Lennard Jones energy" units="K" value="154.7757" />
<RacketParameter name="Rackett parameter" units="_" value="0.288" />
<FullerVolume name="Fuller et al. diffusion volume" units="_" value="24.5" />
<MatthiasCopemanC2 name="Mathias-Copeman C2" units="_" value="0" />
<Parachor name="Parachor" units="kg0.25.m3/s0.5/kmol" value="0.0123743" />
<SpecificGravity name="Specific gravity" units="_" value="2.42087" />
<Charge name="Charge" units="_" value="0" />
<CostaldAcentricFactor name="SRK acentric factor" units="_" value="0.005" />
<WilsonVolume name="Wilson volume" units="m3/kmol" value="0.03463" />
<UniquacR name="UNIQUAC r" units="_" value="1.12" />
<UniquacQ name="UNIQUAC q" units="_" value="1.12" />
<MatthiasCopemanC3 name="Mathias-Copeman C3" units="_" value="0" />
<ChaoSeaderAcentricFactor name="Chao-Seader acentric factor" units="_" value="0.005" />
<ChaoSeaderSolubilityParameter name="Chao-Seader solubility parameter" units="J0.5/m1.5" value="15280" />
<ChaoSeaderLiquidVolume name="Chao-Seader liquid volume" units="m3/kmol" value="0.03463" />
<Umr name="UMR">
  <group id="203" value="1" />
  </Umr>
<CAS name="CAS number" value="7439-90-9" />
<Smiles name="SMILES" value="[Kr]" />
</compound>

