<compound>
<LibraryIndex name="Index" value="2255" />
<CompoundID name="Name" value="linolenic acid" />
<StructureFormula name="Structure" value="CH3(CH2CHCH)3(CH2)7COOH" />
<Family name="Family" value="51" />
<CriticalTemperature name="Critical temperature" units="K" value="812.15" />
<CriticalPressure name="Critical pressure" units="Pa" value="1440000" />
<CriticalVolume name="Critical volume" units="m3/kmol" value="0.982" />
<CriticalCompressibility name="Critical compressibility factor" units="_" value="0.238" />
<NormalBoilingPointTemperature name="Normal boiling point" units="K" value="632" />
<NormalMeltingPointTemperature name="Melting point" units="K" value="262.65" />
<TriplePointTemperature name="Triple point temperature" units="K" value="262.05" />
<TriplePointPressure name="Triple point pressure" units="Pa" value="1.02048E-07" />
<MolecularWeight name="Molecular weight" units="kg/kmol" value="278.43" />
<LiquidVolumeAtNormalBoilingPoint name="Liquid molar volume at normal boiling point" units="m3/kmol" value="0.305149" />
<AcentricityFactor name="Acentric factor" units="_" value="1.18697" />
<RadiusOfGyration name="Radius of gyration" units="m" value="8.369E-10" />
<SolubilityParameter name="Solubility parameter" units="J0.5/m1.5" value="18990" />
<DipoleMoment name="Dipole moment" units="Coulomb.m" value="5.2E-30" />
<VanDerWaalsVolume name="Van der Waals volume" units="m3/kmol" value="0.18653" />
<VanDerWaalsArea name="Van der Waals area" units="m2/kmol" value="2.52E+09" />
<HeatOfFormation name="IG heat of formation" units="J/kmol" value="-4.139E+08" />
<GibbsEnergyOfFormation name="IG Gibbs energy of formation" units="J/kmol" value="-4926000" />
<AbsEntropy name="IG absolute entropy" units="J/kmol/K" value="895200" />
<HeatOfCombustion name="Standard net heat of combustion LHV" units="J/kmol" value="-1.018E+10" />
<SolidDensity name="Solid density" units="kmol/m3">
  <eqno value="100" />
  <A value="4.3058" />
  <B value="-0.0020539" />
  <C value="0" />
  <D value="0" />
  <E value="0" />
  <Tmin units="K" value="104.82" />
  <Tmax units="K" value="262.05" />
  </SolidDensity>
<LiquidDensity name="Liquid density" units="kmol/m3">
  <eqno value="105" />
  <A value="0.22204" />
  <B value="0.23731" />
  <C value="780" />
  <D value="0.2857" />
  <Tmin units="K" value="262.05" />
  <Tmax units="K" value="780" />
  </LiquidDensity>
<VaporPressure name="Vapour pressure" units="Pa">
  <eqno value="101" />
  <A value="148.2" />
  <B value="-18821" />
  <C value="-16.607" />
  <D value="3.1233E-18" />
  <E value="6" />
  <Tmin units="K" value="262.05" />
  <Tmax units="K" value="780" />
  </VaporPressure>
<HeatOfVaporization name="Heat of vaporization" units="J/kmol">
  <eqno value="106" />
  <A value="1.368E+08" />
  <B value="0.4054" />
  <C value="0" />
  <D value="0" />
  <E value="0" />
  <Tmin units="K" value="262.05" />
  <Tmax units="K" value="780" />
  </HeatOfVaporization>
<SolidHeatCapacityCp name="Solid heat capacity" units="J/kmol/K">
  <eqno value="102" />
  <A value="6910" />
  <B value="0.79267" />
  <C value="0" />
  <D value="0" />
  <Tmin units="K" value="50" />
  <Tmax units="K" value="262.05" />
  </SolidHeatCapacityCp>
<LiquidHeatCapacityCp name="Liquid heat capacity" units="J/kmol/K">
  <eqno value="100" />
  <A value="167800" />
  <B value="1073.7" />
  <C value="0" />
  <D value="0" />
  <E value="0" />
  <Tmin units="K" value="390" />
  <Tmax units="K" value="585" />
  </LiquidHeatCapacityCp>
<IdealGasHeatCapacityCp name="Ideal gas heat capacity" units="J/kmol/K">
  <eqno value="107" />
  <A value="262040" />
  <B value="876040" />
  <C value="1577.2" />
  <D value="630880" />
  <E value="710.82" />
  <Tmin units="K" value="300" />
  <Tmax units="K" value="1200" />
  </IdealGasHeatCapacityCp>
<LiquidViscosity name="Liquid viscosity" units="Pa.s">
  <eqno value="101" />
  <A value="-43.986" />
  <B value="3941.2" />
  <C value="4.6663" />
  <D value="0" />
  <E value="0" />
  <Tmin units="K" value="262.05" />
  <Tmax units="K" value="450" />
  </LiquidViscosity>
<VaporViscosity name="Vapour viscosity" units="Pa.s">
  <eqno value="102" />
  <A value="3.643E-08" />
  <B value="0.8608" />
  <C value="67.1" />
  <D value="0" />
  <Tmin units="K" value="262.05" />
  <Tmax units="K" value="1000" />
  </VaporViscosity>
<LiquidThermalConductivity name="Liquid thermal conductivity" units="W/m/K">
  <eqno value="100" />
  <A value="0.212" />
  <B value="-0.0001761" />
  <C value="0" />
  <D value="0" />
  <E value="0" />
  <Tmin units="K" value="262.05" />
  <Tmax units="K" value="733.15" />
  </LiquidThermalConductivity>
<VaporThermalConductivity name="Vapour thermal conductivity" units="W/m/K">
  <eqno value="102" />
  <A value="0.00012426" />
  <B value="0.9459" />
  <C value="804.37" />
  <D value="0" />
  <Tmin units="K" value="632" />
  <Tmax units="K" value="1000" />
  </VaporThermalConductivity>
<SurfaceTension name="Surface tension" units="N/m">
  <eqno value="106" />
  <A value="0.057153" />
  <B value="1.2235" />
  <C value="0" />
  <D value="0" />
  <E value="0" />
  <Tmin units="K" value="262.05" />
  <Tmax units="K" value="780" />
  </SurfaceTension>
<FullerVolume name="Fuller et al. diffusion volume" units="_" value="349.42" />
<Parachor name="Parachor" units="kg0.25.m3/s0.5/kmol" value="0.131041" />
<SpecificGravity name="Specific gravity" units="_" value="0.914" />
<Charge name="Charge" units="_" value="0" />
<CostaldAcentricFactor name="SRK acentric factor" units="_" value="1.18697" />
<WilsonVolume name="Wilson volume" units="m3/kmol" value="0.305149" />
<UniquacQ name="UNIQUAC q" units="_" value="10.073" />
<ChaoSeaderAcentricFactor name="Chao-Seader acentric factor" units="_" value="1.18697" />
<ChaoSeaderSolubilityParameter name="Chao-Seader solubility parameter" units="J0.5/m1.5" value="18990" />
<ChaoSeaderLiquidVolume name="Chao-Seader liquid volume" units="m3/kmol" value="0.305149" />
<UnifacVLE name="UNIFAC">
  <group id="1" value="1" />
  <group id="2" value="10" />
  <group id="6" value="3" />
  <group id="43" value="1" />
  </UnifacVLE>
<UnifacLLE name="UNIFAC-LLE">
  <group id="1" value="1" />
  <group id="2" value="10" />
  <group id="6" value="3" />
  <group id="23" value="1" />
  </UnifacLLE>
<Asog name="ASOG">
  <group id="1" value="1" />
  <group id="2" value="10" />
  <group id="6" value="3" />
  <group id="24" value="1" />
  </Asog>
<Umr name="UMR">
  <group id="1" value="1" />
  <group id="2" value="10" />
  <group id="6" value="3" />
  <group id="43" value="1" />
  </Umr>
<ModifiedUnifac name="Modified UNIFAC">
  <group id="1" value="1" />
  <group id="2" value="10" />
  <group id="6" value="3" />
  <group id="42" value="1" />
  </ModifiedUnifac>
<CAS name="CAS number" value="463-40-1" />
<Smiles name="SMILES" value="CC/C=C\C/C=C\C/C=C\CCCCCCCC(=O)O" />
</compound>

