<compound>
<LibraryIndex name="Index" value="523" />
<CompoundID name="Name" value="m-cymene" />
<StructureFormula name="Structure" value="CH3(C6H4)CH(CH3)2" />
<Family name="Family" value="17" />
<CriticalTemperature name="Critical temperature" units="K" value="666.25" />
<CriticalPressure name="Critical pressure" units="Pa" value="2810000" />
<CriticalVolume name="Critical volume" units="m3/kmol" value="0.478" />
<CriticalCompressibility name="Critical compressibility factor" units="_" value="0.257" />
<NormalBoilingPointTemperature name="Normal boiling point" units="K" value="448.23" />
<NormalMeltingPointTemperature name="Melting point" units="K" value="209.44" />
<TriplePointTemperature name="Triple point temperature" units="K" value="209.44" />
<TriplePointPressure name="Triple point pressure" units="Pa" value="0.0405569" />
<MolecularWeight name="Molecular weight" units="kg/kmol" value="134.2182" />
<LiquidVolumeAtNormalBoilingPoint name="Liquid molar volume at normal boiling point" units="m3/kmol" value="0.156604" />
<AcentricityFactor name="Acentric factor" units="_" value="0.342" />
<RadiusOfGyration name="Radius of gyration" units="m" value="4.636E-10" />
<SolubilityParameter name="Solubility parameter" units="J0.5/m1.5" value="17110" />
<DipoleMoment name="Dipole moment" units="Coulomb.m" value="1.2E-30" />
<VanDerWaalsVolume name="Van der Waals volume" units="m3/kmol" value="0.09111" />
<VanDerWaalsArea name="Van der Waals area" units="m2/kmol" value="1.153E+09" />
<HeatOfFormation name="IG heat of formation" units="J/kmol" value="-2.79909E+07" />
<GibbsEnergyOfFormation name="IG Gibbs energy of formation" units="J/kmol" value="1.301E+08" />
<AbsEntropy name="IG absolute entropy" units="J/kmol/K" value="432200" />
<HeatOfFusionAtMeltingPoint name="Heat of fusion at melting point" units="J/kmol" value="1.37E+07" />
<MatthiasCopemanC1 name="Mathias-Copeman C1" units="_" value="0.88" />
<HeatOfCombustion name="Standard net heat of combustion LHV" units="J/kmol" value="-5.55802E+09" />
<SolidDensity name="Solid density" units="kmol/m3">
  <eqno value="2" />
  <A value="8.7359" />
  <B value="-0.0046553" />
  <C value="0" />
  <D value="0" />
  <E value="0" />
  <Tmin units="K" value="83.78" />
  <Tmax units="K" value="209.44" />
  </SolidDensity>
<LiquidDensity name="Liquid density" units="kmol/m3">
  <eqno value="105" />
  <A value="0.17699" />
  <B value="0.14976" />
  <C value="666.25" />
  <D value="0.19922" />
  <Tmin units="K" value="209.44" />
  <Tmax units="K" value="625.87" />
  </LiquidDensity>
<VaporPressure name="Vapour pressure" units="Pa">
  <eqno value="101" />
  <A value="72.132" />
  <B value="-7676.5" />
  <C value="-7.2263" />
  <D value="0.0000031742" />
  <E value="2" />
  <Tmin units="K" value="209.44" />
  <Tmax units="K" value="649" />
  </VaporPressure>
<HeatOfVaporization name="Heat of vaporization" units="J/kmol">
  <eqno value="106" />
  <A value="1.132017E+08" />
  <B value="4.402749" />
  <C value="-10.71693" />
  <D value="11.0294" />
  <E value="-4.113621" />
  <Tmin units="K" value="209.44" />
  <Tmax units="K" value="649" />
  </HeatOfVaporization>
<SolidHeatCapacityCp name="Solid heat capacity" units="J/kmol/K">
  <eqno value="1" />
  <A value="214740" />
  <Tmin units="K" value="0" />
  <Tmax units="K" value="666.25" />
  </SolidHeatCapacityCp>
<LiquidHeatCapacityCp name="Liquid heat capacity" units="J/kmol/K">
  <eqno value="16" />
  <A value="129560" />
  <B value="-114.64" />
  <C value="10.436" />
  <D value="0.006807" />
  <E value="-0.0000055776" />
  <Tmin units="K" value="209.44" />
  <Tmax units="K" value="448.23" />
  </LiquidHeatCapacityCp>
<IdealGasHeatCapacityCp name="Ideal gas heat capacity" units="J/kmol/K">
  <eqno value="16" />
  <A value="118290" />
  <B value="-808.58" />
  <C value="13.818" />
  <D value="-0.00057669" />
  <E value="1.7291E-07" />
  <Tmin units="K" value="200" />
  <Tmax units="K" value="1500" />
  </IdealGasHeatCapacityCp>
<SecondVirialCoefficient name="Second virial coefficient" units="m3/kmol">
  <eqno value="104" />
  <A value="0.12974" />
  <B value="-253.73" />
  <C value="-121.92" />
  <D value="-30910" />
  <E value="33295" />
  <Tmin units="K" value="209.44" />
  <Tmax units="K" value="1500" />
  </SecondVirialCoefficient>
<LiquidViscosity name="Liquid viscosity" units="Pa.s">
  <eqno value="101" />
  <A value="-8.2582" />
  <B value="1048.3" />
  <C value="-0.41448" />
  <D value="-1.0836E-07" />
  <E value="2" />
  <Tmin units="K" value="209.44" />
  <Tmax units="K" value="600" />
  </LiquidViscosity>
<VaporViscosity name="Vapour viscosity" units="Pa.s">
  <eqno value="102" />
  <A value="0.0000018208" />
  <B value="0.39157" />
  <C value="589.66" />
  <D value="3771.8" />
  <Tmin units="K" value="209.44" />
  <Tmax units="K" value="1000" />
  </VaporViscosity>
<LiquidThermalConductivity name="Liquid thermal conductivity" units="W/m/K">
  <eqno value="16" />
  <A value="-0.042558" />
  <B value="-18.046" />
  <C value="-1.3081" />
  <D value="-0.0015377" />
  <E value="2.6414E-07" />
  <Tmin units="K" value="209.44" />
  <Tmax units="K" value="448.23" />
  </LiquidThermalConductivity>
<VaporThermalConductivity name="Vapour thermal conductivity" units="W/m/K">
  <eqno value="102" />
  <A value="0.0000098162" />
  <B value="1.3084" />
  <C value="45.918" />
  <D value="51418" />
  <Tmin units="K" value="209.44" />
  <Tmax units="K" value="1000" />
  </VaporThermalConductivity>
<SurfaceTension name="Surface tension" units="N/m">
  <eqno value="16" />
  <A value="-0.012208" />
  <B value="47.367" />
  <C value="-3.0587" />
  <D value="0.000021368" />
  <E value="-0.0000033062" />
  <Tmin units="K" value="209.44" />
  <Tmax units="K" value="649" />
  </SurfaceTension>
<RPPHeatCapacityCp name="Ideal gas heat capacity (RPP)" units="J/kmol/K">
  <eqno value="4" />
  <A value="-18198" />
  <B value="773.31" />
  <C value="-0.42297" />
  <D value="0.000085563" />
  <Tmin units="K" value="200" />
  <Tmax units="K" value="1500" />
  </RPPHeatCapacityCp>
<AntoineVaporPressure name="Antoine" units="Pa">
  <eqno value="10" />
  <A value="21.325" />
  <B value="3857.2" />
  <C value="-54.615" />
  <Tmin units="K" value="399.78" />
  <Tmax units="K" value="579.6" />
  </AntoineVaporPressure>
<LiquidViscosityRPS name="Liquid viscosity (RPS)" units="Pa.s">
  <eqno value="12" />
  <A value="-3.4735" />
  <B value="-0.011921" />
  <Tmin units="K" value="209.44" />
  <Tmax units="K" value="448.23" />
  </LiquidViscosityRPS>
<COSTALDVolume name="COSTLD characteristic volume (V*)" units="m3/kmol" value="0.501549" />
<DiameterLJ name="Lennard Jones diameter" units="m" value="7.449627E-10" />
<EnergyLJ name="Lennard Jones energy" units="K" value="326.8208" />
<RacketParameter name="Rackett parameter" units="_" value="0.257" />
<FullerVolume name="Fuller et al. diffusion volume" units="_" value="173.04" />
<MatthiasCopemanC2 name="Mathias-Copeman C2" units="_" value="0" />
<Parachor name="Parachor" units="kg0.25.m3/s0.5/kmol" value="0.0649982" />
<SpecificGravity name="Specific gravity" units="_" value="0.865347" />
<Charge name="Charge" units="_" value="0" />
<CostaldAcentricFactor name="SRK acentric factor" units="_" value="0.342" />
<WilsonVolume name="Wilson volume" units="m3/kmol" value="0.156604" />
<UniquacR name="UNIQUAC r" units="_" value="6.0058" />
<UniquacQ name="UNIQUAC q" units="_" value="4.612" />
<ApiSrkS2 name="API-SRK s2" units="_" value="0.004533" />
<MatthiasCopemanC3 name="Mathias-Copeman C3" units="_" value="0" />
<ChaoSeaderAcentricFactor name="Chao-Seader acentric factor" units="_" value="0.342" />
<ChaoSeaderSolubilityParameter name="Chao-Seader solubility parameter" units="J0.5/m1.5" value="17110" />
<ChaoSeaderLiquidVolume name="Chao-Seader liquid volume" units="m3/kmol" value="0.156604" />
<UnifacVLE name="UNIFAC">
  <group id="1" value="2" />
  <group id="10" value="4" />
  <group id="12" value="1" />
  <group id="14" value="1" />
  </UnifacVLE>
<UnifacLLE name="UNIFAC-LLE">
  <group id="1" value="2" />
  <group id="9" value="4" />
  <group id="11" value="1" />
  <group id="13" value="1" />
  </UnifacLLE>
<Asog name="ASOG">
  <group id="1" value="3" />
  <group id="3" value="1" />
  <group id="10" value="4" />
  <group id="11" value="2" />
  </Asog>
<GCmethod name="PPR78">
  <group id="1" value="3" />
  <group id="7" value="4" />
  <group id="8" value="2" />
  <group id="3" value="1" />
  </GCmethod>
<Umr name="UMR">
  <group id="1" value="2" />
  <group id="10" value="4" />
  <group id="12" value="1" />
  <group id="14" value="1" />
  </Umr>
<ModifiedUnifac name="Modified UNIFAC">
  <group id="1" value="2" />
  <group id="9" value="4" />
  <group id="11" value="1" />
  <group id="13" value="1" />
  </ModifiedUnifac>
<CAS name="CAS number" value="535-77-3" />
<Smiles name="SMILES" value="c1(C(C)C)cc(C)ccc1" />
</compound>

