<compound>
<LibraryIndex name="Index" value="1573" />
<CompoundID name="Name" value="m-dichlorobenzene" />
<StructureFormula name="Structure" value="(C6H4)Cl2" />
<Family name="Family" value="29" />
<CriticalTemperature name="Critical temperature" units="K" value="683.95" />
<CriticalPressure name="Critical pressure" units="Pa" value="4070000" />
<CriticalVolume name="Critical volume" units="m3/kmol" value="0.351" />
<CriticalCompressibility name="Critical compressibility factor" units="_" value="0.251" />
<NormalBoilingPointTemperature name="Normal boiling point" units="K" value="446.23" />
<NormalMeltingPointTemperature name="Melting point" units="K" value="248.39" />
<TriplePointTemperature name="Triple point temperature" units="K" value="248.39" />
<TriplePointPressure name="Triple point pressure" units="Pa" value="6.40787" />
<MolecularWeight name="Molecular weight" units="kg/kmol" value="147.002" />
<LiquidVolumeAtNormalBoilingPoint name="Liquid molar volume at normal boiling point" units="m3/kmol" value="0.114533" />
<AcentricityFactor name="Acentric factor" units="_" value="0.27898" />
<RadiusOfGyration name="Radius of gyration" units="m" value="4.389E-10" />
<SolubilityParameter name="Solubility parameter" units="J0.5/m1.5" value="19570" />
<DipoleMoment name="Dipole moment" units="Coulomb.m" value="5.74E-30" />
<VanDerWaalsVolume name="Van der Waals volume" units="m3/kmol" value="0.06732" />
<VanDerWaalsArea name="Van der Waals area" units="m2/kmol" value="8.22E+08" />
<HeatOfFormation name="IG heat of formation" units="J/kmol" value="2.57E+07" />
<GibbsEnergyOfFormation name="IG Gibbs energy of formation" units="J/kmol" value="7.79E+07" />
<AbsEntropy name="IG absolute entropy" units="J/kmol/K" value="343530" />
<HeatOfFusionAtMeltingPoint name="Heat of fusion at melting point" units="J/kmol" value="1.259E+07" />
<MatthiasCopemanC1 name="Mathias-Copeman C1" units="_" value="0.89625" />
<HeatOfCombustion name="Standard net heat of combustion LHV" units="J/kmol" value="-2.825E+09" />
<SolidDensity name="Solid density" units="kmol/m3">
  <eqno value="2" />
  <A value="11.566" />
  <B value="-0.0051312" />
  <Tmin units="K" value="99.36" />
  <Tmax units="K" value="248.39" />
  </SolidDensity>
<LiquidDensity name="Liquid density" units="kmol/m3">
  <eqno value="105" />
  <A value="0.74132" />
  <B value="0.26094" />
  <C value="683.95" />
  <D value="0.31392" />
  <Tmin units="K" value="248.39" />
  <Tmax units="K" value="683.95" />
  </LiquidDensity>
<VaporPressure name="Vapour pressure" units="Pa">
  <eqno value="101" />
  <A value="100.37" />
  <B value="-9087" />
  <C value="-11.404" />
  <D value="0.0000055122" />
  <E value="2" />
  <Tmin units="K" value="248.39" />
  <Tmax units="K" value="683.95" />
  </VaporPressure>
<HeatOfVaporization name="Heat of vaporization" units="J/kmol">
  <eqno value="106" />
  <A value="5.2076E+07" />
  <B value="0.15554" />
  <C value="-0.20298" />
  <D value="0.94291" />
  <E value="-0.55524" />
  <Tmin units="K" value="248.39" />
  <Tmax units="K" value="683.95" />
  </HeatOfVaporization>
<SolidHeatCapacityCp name="Solid heat capacity" units="J/kmol/K">
  <eqno value="100" />
  <A value="35.885" />
  <B value="2025.5" />
  <C value="-13.455" />
  <D value="0.039723" />
  <E value="-0.000043973" />
  <Tmin units="K" value="221.15" />
  <Tmax units="K" value="230.65" />
  </SolidHeatCapacityCp>
<LiquidHeatCapacityCp name="Liquid heat capacity" units="J/kmol/K">
  <eqno value="16" />
  <A value="89111" />
  <B value="785.31" />
  <C value="3.6098" />
  <D value="0.022491" />
  <E value="-0.00001896" />
  <Tmin units="K" value="248.39" />
  <Tmax units="K" value="446.23" />
  </LiquidHeatCapacityCp>
<IdealGasHeatCapacityCp name="Ideal gas heat capacity" units="J/kmol/K">
  <eqno value="16" />
  <A value="56066" />
  <B value="-490.93" />
  <C value="12.649" />
  <D value="-0.00012726" />
  <E value="2.3703E-08" />
  <Tmin units="K" value="200" />
  <Tmax units="K" value="1500" />
  </IdealGasHeatCapacityCp>
<SecondVirialCoefficient name="Second virial coefficient" units="m3/kmol">
  <eqno value="104" />
  <A value="0.24322" />
  <B value="-355.19" />
  <C value="-67.685" />
  <D value="-40405" />
  <E value="47635" />
  <Tmin units="K" value="341.97" />
  <Tmax units="K" value="1500" />
  </SecondVirialCoefficient>
<LiquidViscosity name="Liquid viscosity" units="Pa.s">
  <eqno value="101" />
  <A value="-114.79" />
  <B value="4907.5" />
  <C value="16.374" />
  <D value="-0.000020623" />
  <E value="2" />
  <Tmin units="K" value="248.39" />
  <Tmax units="K" value="547.16" />
  </LiquidViscosity>
<VaporViscosity name="Vapour viscosity" units="Pa.s">
  <eqno value="102" />
  <A value="2.3524E-07" />
  <B value="0.71383" />
  <C value="257.29" />
  <D value="1880.2" />
  <Tmin units="K" value="248.39" />
  <Tmax units="K" value="1000" />
  </VaporViscosity>
<LiquidThermalConductivity name="Liquid thermal conductivity" units="W/m/K">
  <eqno value="16" />
  <A value="0.042347" />
  <B value="-224.09" />
  <C value="-0.2096" />
  <D value="-0.006185" />
  <E value="0.0000024486" />
  <Tmin units="K" value="248.39" />
  <Tmax units="K" value="446.23" />
  </LiquidThermalConductivity>
<VaporThermalConductivity name="Vapour thermal conductivity" units="W/m/K">
  <eqno value="102" />
  <A value="-1552.3" />
  <B value="0.68852" />
  <C value="-2.6293E+09" />
  <D value="-1.7751E+11" />
  <Tmin units="K" value="248.39" />
  <Tmax units="K" value="1000" />
  </VaporThermalConductivity>
<SurfaceTension name="Surface tension" units="N/m">
  <eqno value="16" />
  <A value="-0.018573" />
  <B value="119.26" />
  <C value="-3.5049" />
  <D value="0.0018889" />
  <E value="-0.0000041728" />
  <Tmin units="K" value="248.39" />
  <Tmax units="K" value="683.95" />
  </SurfaceTension>
<RPPHeatCapacityCp name="Ideal gas heat capacity (RPP)" units="J/kmol/K">
  <eqno value="4" />
  <A value="-13602.18" />
  <B value="548.9826" />
  <C value="-0.450282" />
  <D value="0.00014267" />
  <Tmin units="K" value="200" />
  <Tmax units="K" value="1200" />
  </RPPHeatCapacityCp>
<RelativeStaticPermittivity name="Relative static permittivity" units="_">
  <eqno value="120" />
  <A value="-3.829242" />
  <B value="-2500" />
  <C value="-15" />
  <Tmin units="K" value="154" />
  <Tmax units="K" value="449.15" />
  </RelativeStaticPermittivity>
<AntoineVaporPressure name="Antoine" units="Pa">
  <eqno value="10" />
  <A value="21.137" />
  <B value="3719.2" />
  <C value="-59.169" />
  <Tmin units="K" value="413.64" />
  <Tmax units="K" value="615.18" />
  </AntoineVaporPressure>
<LiquidViscosityRPS name="Liquid viscosity (RPS)" units="Pa.s">
  <eqno value="13" />
  <A value="-2.2726" />
  <B value="-0.019593" />
  <C value="0.00001463" />
  <Tmin units="K" value="248.39" />
  <Tmax units="K" value="547.16" />
  </LiquidViscosityRPS>
<COSTALDVolume name="COSTLD characteristic volume (V*)" units="m3/kmol" value="0.36165" />
<DiameterLJ name="Lennard Jones diameter" units="m" value="6.914152E-10" />
<EnergyLJ name="Lennard Jones energy" units="K" value="308.1505" />
<FullerVolume name="Fuller et al. diffusion volume" units="_" value="128.34" />
<MatthiasCopemanC2 name="Mathias-Copeman C2" units="_" value="0" />
<Parachor name="Parachor" units="kg0.25.m3/s0.5/kmol" value="0.0500142" />
<SpecificGravity name="Specific gravity" units="_" value="1.2946" />
<Charge name="Charge" units="_" value="0" />
<CostaldAcentricFactor name="SRK acentric factor" units="_" value="0.215834" />
<WilsonVolume name="Wilson volume" units="m3/kmol" value="0.114641" />
<UniquacR name="UNIQUAC r" units="_" value="4.4376" />
<UniquacQ name="UNIQUAC q" units="_" value="3.288" />
<MatthiasCopemanC3 name="Mathias-Copeman C3" units="_" value="0" />
<ChaoSeaderAcentricFactor name="Chao-Seader acentric factor" units="_" value="0.215834" />
<ChaoSeaderSolubilityParameter name="Chao-Seader solubility parameter" units="J0.5/m1.5" value="19575.7" />
<ChaoSeaderLiquidVolume name="Chao-Seader liquid volume" units="m3/kmol" value="0.114641" />
<UnifacVLE name="UNIFAC">
  <group id="10" value="4" />
  <group id="54" value="2" />
  </UnifacVLE>
<UnifacLLE name="UNIFAC-LLE">
  <group id="9" value="4" />
  <group id="40" value="2" />
  </UnifacLLE>
<Asog name="ASOG">
  <group id="10" value="4" />
  <group id="11" value="2" />
  <group id="42" value="2" />
  </Asog>
<Umr name="UMR">
  <group id="10" value="4" />
  <group id="54" value="2" />
  </Umr>
<ModifiedUnifac name="Modified UNIFAC">
  <group id="9" value="4" />
  <group id="53" value="2" />
  </ModifiedUnifac>
<CAS name="CAS number" value="541-73-1" />
<Smiles name="SMILES" value="c1c([Cl])cccc1([Cl])" />
</compound>

