<compound>
<LibraryIndex name="Index" value="3268" />
<CompoundID name="Name" value="malonic acid" />
<StructureFormula name="Structure" value="HO2CCH2CO2H" />
<Family name="Family" value="52" />
<CriticalTemperature name="Critical temperature" units="K" value="805" />
<CriticalPressure name="Critical pressure" units="Pa" value="5640000" />
<CriticalVolume name="Critical volume" units="m3/kmol" value="0.258" />
<CriticalCompressibility name="Critical compressibility factor" units="_" value="0.217" />
<NormalBoilingPointTemperature name="Normal boiling point" units="K" value="413.15" />
<NormalMeltingPointTemperature name="Melting point" units="K" value="409.15" />
<TriplePointTemperature name="Triple point temperature" units="K" value="407.95" />
<TriplePointPressure name="Triple point pressure" units="Pa" value="70.2765" />
<MolecularWeight name="Molecular weight" units="kg/kmol" value="104.061" />
<LiquidVolumeAtNormalBoilingPoint name="Liquid molar volume at normal boiling point" units="m3/kmol" value="0.0738918" />
<AcentricityFactor name="Acentric factor" units="_" value="0.941804" />
<RadiusOfGyration name="Radius of gyration" units="m" value="3.576E-10" />
<SolubilityParameter name="Solubility parameter" units="J0.5/m1.5" value="34240" />
<DipoleMoment name="Dipole moment" units="Coulomb.m" value="8.57E-30" />
<VanDerWaalsVolume name="Van der Waals volume" units="m3/kmol" value="0.04971" />
<VanDerWaalsArea name="Van der Waals area" units="m2/kmol" value="7.47E+08" />
<HeatOfFormation name="IG heat of formation" units="J/kmol" value="-8.12E+08" />
<GibbsEnergyOfFormation name="IG Gibbs energy of formation" units="J/kmol" value="-6.7E+08" />
<AbsEntropy name="IG absolute entropy" units="J/kmol/K" value="370000" />
<HeatOfFusionAtMeltingPoint name="Heat of fusion at melting point" units="J/kmol" value="2.548E+07" />
<HeatOfCombustion name="Standard net heat of combustion LHV" units="J/kmol" value="-7.732E+08" />
<SolidDensity name="Solid density" units="kmol/m3">
  <eqno value="100" />
  <A value="16.345" />
  <B value="-0.0025245" />
  <C value="0" />
  <D value="0" />
  <E value="0" />
  <Tmin units="K" value="78.15" />
  <Tmax units="K" value="407.95" />
  </SolidDensity>
<LiquidDensity name="Liquid density" units="kmol/m3">
  <eqno value="105" />
  <A value="0.84266" />
  <B value="0.217" />
  <C value="805" />
  <D value="0.28571" />
  <Tmin units="K" value="407.95" />
  <Tmax units="K" value="805" />
  </LiquidDensity>
<VaporPressure name="Vapour pressure" units="Pa">
  <eqno value="101" />
  <A value="122.92" />
  <B value="-16258" />
  <C value="-13.113" />
  <D value="2.0609E-18" />
  <E value="6" />
  <Tmin units="K" value="407.95" />
  <Tmax units="K" value="805" />
  </VaporPressure>
<HeatOfVaporization name="Heat of vaporization" units="J/kmol">
  <eqno value="106" />
  <A value="1.1767E+08" />
  <B value="0.37877" />
  <C value="0" />
  <D value="0" />
  <E value="0" />
  <Tmin units="K" value="407.95" />
  <Tmax units="K" value="805" />
  </HeatOfVaporization>
<SolidHeatCapacityCp name="Solid heat capacity" units="J/kmol/K">
  <eqno value="100" />
  <A value="-64149" />
  <B value="628.38" />
  <C value="0" />
  <D value="0" />
  <E value="0" />
  <Tmin units="K" value="273.15" />
  <Tmax units="K" value="383.15" />
  </SolidHeatCapacityCp>
<LiquidHeatCapacityCp name="Liquid heat capacity" units="J/kmol/K">
  <eqno value="100" />
  <A value="157850" />
  <B value="-41.619" />
  <C value="0.42817" />
  <D value="0" />
  <E value="0" />
  <Tmin units="K" value="407.95" />
  <Tmax units="K" value="603.75" />
  </LiquidHeatCapacityCp>
<IdealGasHeatCapacityCp name="Ideal gas heat capacity" units="J/kmol/K">
  <eqno value="107" />
  <A value="49522" />
  <B value="187180" />
  <C value="1295.8" />
  <D value="148520" />
  <E value="569.96" />
  <Tmin units="K" value="300" />
  <Tmax units="K" value="1200" />
  </IdealGasHeatCapacityCp>
<LiquidViscosity name="Liquid viscosity" units="Pa.s">
  <eqno value="101" />
  <A value="-19.834" />
  <B value="2784.5" />
  <C value="1.1161" />
  <D value="0" />
  <E value="0" />
  <Tmin units="K" value="404.15" />
  <Tmax units="K" value="580" />
  </LiquidViscosity>
<VaporViscosity name="Vapour viscosity" units="Pa.s">
  <eqno value="102" />
  <A value="8.4213E-08" />
  <B value="0.82573" />
  <C value="102.08" />
  <D value="0" />
  <Tmin units="K" value="407.95" />
  <Tmax units="K" value="1000" />
  </VaporViscosity>
<LiquidThermalConductivity name="Liquid thermal conductivity" units="W/m/K">
  <eqno value="100" />
  <A value="0.28918" />
  <B value="-0.0002614" />
  <C value="0" />
  <D value="0" />
  <E value="0" />
  <Tmin units="K" value="407.95" />
  <Tmax units="K" value="644" />
  </LiquidThermalConductivity>
<VaporThermalConductivity name="Vapour thermal conductivity" units="W/m/K">
  <eqno value="102" />
  <A value="0.00033075" />
  <B value="0.81895" />
  <C value="777.75" />
  <D value="0" />
  <Tmin units="K" value="580" />
  <Tmax units="K" value="1000" />
  </VaporThermalConductivity>
<SurfaceTension name="Surface tension" units="N/m">
  <eqno value="106" />
  <A value="0.12108" />
  <B value="1.2977" />
  <C value="0" />
  <D value="0" />
  <E value="0" />
  <Tmin units="K" value="407.95" />
  <Tmax units="K" value="805" />
  </SurfaceTension>
<AntoineVaporPressure name="Antoine" units="Pa">
  <eqno value="10" />
  <A value="23.79132" />
  <B value="5679.623" />
  <C value="-117.4202" />
  <Tmin units="K" value="410" />
  <Tmax units="K" value="700" />
  </AntoineVaporPressure>
<FullerVolume name="Fuller et al. diffusion volume" units="_" value="81.38" />
<Charge name="Charge" units="_" value="0" />
<CostaldAcentricFactor name="SRK acentric factor" units="_" value="0.941804" />
<WilsonVolume name="Wilson volume" units="m3/kmol" value="0.0738918" />
<UniquacR name="UNIQUAC r" units="_" value="3.277" />
<UniquacQ name="UNIQUAC q" units="_" value="2.988" />
<ChaoSeaderAcentricFactor name="Chao-Seader acentric factor" units="_" value="0.941804" />
<ChaoSeaderSolubilityParameter name="Chao-Seader solubility parameter" units="J0.5/m1.5" value="34240" />
<ChaoSeaderLiquidVolume name="Chao-Seader liquid volume" units="m3/kmol" value="0.0738918" />
<UnifacVLE name="UNIFAC">
  <group id="2" value="1" />
  <group id="43" value="2" />
  </UnifacVLE>
<UnifacLLE name="UNIFAC-LLE">
  <group id="2" value="1" />
  <group id="23" value="2" />
  </UnifacLLE>
<Asog name="ASOG">
  <group id="2" value="1" />
  <group id="24" value="2" />
  </Asog>
<GCmethod name="PPR78">
  <group id="2" value="1" />
  </GCmethod>
<Umr name="UMR">
  <group id="2" value="1" />
  <group id="43" value="2" />
  </Umr>
<ModifiedUnifac name="Modified UNIFAC">
  <group id="2" value="1" />
  <group id="42" value="2" />
  </ModifiedUnifac>
<CAS name="CAS number" value="141-82-2" />
<Smiles name="SMILES" value="C(C(=O)O)C(=O)O" />
</compound>

