<compound>
<LibraryIndex name="Index" value="1405" />
<CompoundID name="Name" value="methyl tert-butyl ether" />
<StructureFormula name="Structure" value="CH3OC(CH3)3" />
<Family name="Family" value="61" />
<CriticalTemperature name="Critical temperature" units="K" value="497.1" />
<CriticalPressure name="Critical pressure" units="Pa" value="3430000" />
<CriticalVolume name="Critical volume" units="m3/kmol" value="0.329" />
<CriticalCompressibility name="Critical compressibility factor" units="_" value="0.273" />
<NormalBoilingPointTemperature name="Normal boiling point" units="K" value="328.35" />
<NormalMeltingPointTemperature name="Melting point" units="K" value="164.55" />
<TriplePointTemperature name="Triple point temperature" units="K" value="164.55" />
<TriplePointPressure name="Triple point pressure" units="Pa" value="0.535656" />
<MolecularWeight name="Molecular weight" units="kg/kmol" value="88.14818" />
<LiquidVolumeAtNormalBoilingPoint name="Liquid molar volume at normal boiling point" units="m3/kmol" value="0.119887" />
<AcentricityFactor name="Acentric factor" units="_" value="0.266059" />
<RadiusOfGyration name="Radius of gyration" units="m" value="3.179E-10" />
<SolubilityParameter name="Solubility parameter" units="J0.5/m1.5" value="15070" />
<DipoleMoment name="Dipole moment" units="Coulomb.m" value="4.54E-30" />
<VanDerWaalsVolume name="Van der Waals volume" units="m3/kmol" value="0.06171" />
<VanDerWaalsArea name="Van der Waals area" units="m2/kmol" value="9.08E+08" />
<HeatOfFormation name="IG heat of formation" units="J/kmol" value="-2.835E+08" />
<GibbsEnergyOfFormation name="IG Gibbs energy of formation" units="J/kmol" value="-1.175E+08" />
<AbsEntropy name="IG absolute entropy" units="J/kmol/K" value="357800" />
<HeatOfFusionAtMeltingPoint name="Heat of fusion at melting point" units="J/kmol" value="7600000" />
<MatthiasCopemanC1 name="Mathias-Copeman C1" units="_" value="0.88771" />
<HeatOfCombustion name="Standard net heat of combustion LHV" units="J/kmol" value="-3.1049E+09" />
<SolidDensity name="Solid density" units="kmol/m3">
  <eqno value="2" />
  <A value="12.4" />
  <B value="-0.0084317" />
  <Tmin units="K" value="65.82" />
  <Tmax units="K" value="164.55" />
  </SolidDensity>
<LiquidDensity name="Liquid density" units="kmol/m3">
  <eqno value="105" />
  <A value="1.013" />
  <B value="0.29119" />
  <C value="513.95" />
  <D value="0.39929" />
  <Tmin units="K" value="164.55" />
  <Tmax units="K" value="513.94" />
  </LiquidDensity>
<VaporPressure name="Vapour pressure" units="Pa">
  <eqno value="101" />
  <A value="63.31041" />
  <B value="-5322.676" />
  <C value="-6.212745" />
  <D value="3.951136E-06" />
  <E value="2" />
  <Tmin units="K" value="164.55" />
  <Tmax units="K" value="497.1" />
  </VaporPressure>
<HeatOfVaporization name="Heat of vaporization" units="J/kmol">
  <eqno value="106" />
  <A value="7.685222E+07" />
  <B value="4.561833" />
  <C value="-12.06881" />
  <D value="13.61234" />
  <E value="-5.569118" />
  <Tmin units="K" value="164.55" />
  <Tmax units="K" value="497.1" />
  </HeatOfVaporization>
<SolidHeatCapacityCp name="Solid heat capacity" units="J/kmol/K">
  <eqno value="100" />
  <A value="-11840" />
  <B value="1396" />
  <C value="-5.8523" />
  <D value="-0.0092711" />
  <E value="0.00016154" />
  <Tmin units="K" value="11.5" />
  <Tmax units="K" value="164.56" />
  </SolidHeatCapacityCp>
<LiquidHeatCapacityCp name="Liquid heat capacity" units="J/kmol/K">
  <eqno value="16" />
  <A value="135550" />
  <B value="-54.229" />
  <C value="8.6558" />
  <D value="0.010329" />
  <E value="-0.0000078206" />
  <Tmin units="K" value="164.55" />
  <Tmax units="K" value="328.35" />
  </LiquidHeatCapacityCp>
<IdealGasHeatCapacityCp name="Ideal gas heat capacity" units="J/kmol/K">
  <eqno value="16" />
  <A value="89729" />
  <B value="-682.14" />
  <C value="12.912" />
  <D value="0.000021441" />
  <E value="-2.0192E-08" />
  <Tmin units="K" value="200" />
  <Tmax units="K" value="1500" />
  </IdealGasHeatCapacityCp>
<SecondVirialCoefficient name="Second virial coefficient" units="m3/kmol">
  <eqno value="104" />
  <A value="0.18862" />
  <B value="-199.25" />
  <C value="-24.367" />
  <D value="-1558.5" />
  <E value="1368.5" />
  <Tmin units="K" value="248.6" />
  <Tmax units="K" value="1809.6" />
  </SecondVirialCoefficient>
<LiquidViscosity name="Liquid viscosity" units="Pa.s">
  <eqno value="101" />
  <A value="-7.136" />
  <B value="821.59" />
  <C value="-0.64419" />
  <D value="4.8322E-07" />
  <E value="2" />
  <Tmin units="K" value="180" />
  <Tmax units="K" value="449.93" />
  </LiquidViscosity>
<VaporViscosity name="Vapour viscosity" units="Pa.s">
  <eqno value="102" />
  <A value="1.6185E-07" />
  <B value="0.73614" />
  <C value="130.03" />
  <D value="-727.78" />
  <Tmin units="K" value="164.55" />
  <Tmax units="K" value="1000" />
  </VaporViscosity>
<LiquidThermalConductivity name="Liquid thermal conductivity" units="W/m/K">
  <eqno value="16" />
  <A value="0.073008" />
  <B value="306.73" />
  <C value="-6.3111" />
  <D value="0.019235" />
  <E value="-0.000037933" />
  <Tmin units="K" value="164.55" />
  <Tmax units="K" value="460.87" />
  </LiquidThermalConductivity>
<VaporThermalConductivity name="Vapour thermal conductivity" units="W/m/K">
  <eqno value="102" />
  <A value="0.00023034" />
  <B value="0.92128" />
  <C value="391.6" />
  <D value="80274" />
  <Tmin units="K" value="164.55" />
  <Tmax units="K" value="1000" />
  </VaporThermalConductivity>
<SurfaceTension name="Surface tension" units="N/m">
  <eqno value="16" />
  <A value="-0.032821" />
  <B value="-29.327" />
  <C value="-1.9813" />
  <D value="-0.0032789" />
  <E value="0.0000010144" />
  <Tmin units="K" value="164.55" />
  <Tmax units="K" value="497.1" />
  </SurfaceTension>
<RPPHeatCapacityCp name="Ideal gas heat capacity (RPP)" units="J/kmol/K">
  <eqno value="4" />
  <A value="17448" />
  <B value="439.33" />
  <C value="-0.18821" />
  <D value="0.000026432" />
  <Tmin units="K" value="200" />
  <Tmax units="K" value="1500" />
  </RPPHeatCapacityCp>
<AntoineVaporPressure name="Antoine" units="Pa">
  <eqno value="10" />
  <A value="20.427" />
  <B value="2381.9" />
  <C value="-60.58" />
  <Tmin units="K" value="299.35" />
  <Tmax units="K" value="444.59" />
  </AntoineVaporPressure>
<LiquidViscosityRPS name="Liquid viscosity (RPS)" units="Pa.s">
  <eqno value="13" />
  <A value="-1.2431" />
  <B value="-0.0329" />
  <C value="0.000034374" />
  <Tmin units="K" value="180" />
  <Tmax units="K" value="449.93" />
  </LiquidViscosityRPS>
<COSTALDVolume name="COSTLD characteristic volume (V*)" units="m3/kmol" value="0.330153" />
<DiameterLJ name="Lennard Jones diameter" units="m" value="6.11761E-10" />
<EnergyLJ name="Lennard Jones energy" units="K" value="303.0697" />
<RacketParameter name="Rackett parameter" units="_" value="0.267213" />
<FullerVolume name="Fuller et al. diffusion volume" units="_" value="113.33" />
<MatthiasCopemanC2 name="Mathias-Copeman C2" units="_" value="0.07186" />
<Parachor name="Parachor" units="kg0.25.m3/s0.5/kmol" value="0.0447" />
<SpecificGravity name="Specific gravity" units="_" value="0.745835" />
<Charge name="Charge" units="_" value="0" />
<CostaldAcentricFactor name="SRK acentric factor" units="_" value="0.266059" />
<WilsonVolume name="Wilson volume" units="m3/kmol" value="0.119887" />
<UniquacR name="UNIQUAC r" units="_" value="4.0678" />
<UniquacQ name="UNIQUAC q" units="_" value="3.632" />
<ApiSrkS1 name="API-SRK s1" units="_" value="0.956082" />
<ApiSrkS2 name="API-SRK s2" units="_" value="-0.053074" />
<MatthiasCopemanC3 name="Mathias-Copeman C3" units="_" value="-0.32865" />
<ChaoSeaderAcentricFactor name="Chao-Seader acentric factor" units="_" value="0.266059" />
<ChaoSeaderSolubilityParameter name="Chao-Seader solubility parameter" units="J0.5/m1.5" value="15070" />
<ChaoSeaderLiquidVolume name="Chao-Seader liquid volume" units="m3/kmol" value="0.119887" />
<UnifacVLE name="UNIFAC">
  <group id="1" value="3" />
  <group id="4" value="1" />
  <group id="25" value="1" />
  </UnifacVLE>
<UnifacLLE name="UNIFAC-LLE">
  <group id="1" value="3" />
  <group id="4" value="1" />
  <group id="27" value="1" />
  </UnifacLLE>
<Asog name="ASOG">
  <group id="1" value="4" />
  <group id="4" value="1" />
  <group id="19" value="1" />
  </Asog>
<Umr name="UMR">
  <group id="1" value="3" />
  <group id="4" value="1" />
  <group id="25" value="1" />
  </Umr>
<ModifiedUnifac name="Modified UNIFAC">
  <group id="1" value="3" />
  <group id="4" value="1" />
  <group id="24" value="1" />
  </ModifiedUnifac>
<CAS name="CAS number" value="1634-04-4" />
<Smiles name="SMILES" value="COC(C)(C)C" />
</compound>

