<compound>
<LibraryIndex name="Index" value="3314" />
<CompoundID name="Name" value="methyl linoleate" />
<StructureFormula name="Structure" value="CH3(CH2)4CHCHCH2CHCH(CH2)7COOCH3" />
<Family name="Family" value="59" />
<CriticalTemperature name="Critical temperature" units="K" value="771.8783" />
<CriticalPressure name="Critical pressure" units="Pa" value="1167172" />
<CriticalVolume name="Critical volume" units="m3/kmol" value="1.08953" />
<CriticalCompressibility name="Critical compressibility factor" units="_" value="0.198148" />
<NormalBoilingPointTemperature name="Normal boiling point" units="K" value="604.7335" />
<MolecularWeight name="Molecular weight" units="kg/kmol" value="294.4721" />
<LiquidVolumeAtNormalBoilingPoint name="Liquid molar volume at normal boiling point" units="m3/kmol" value="0.33401" />
<AcentricityFactor name="Acentric factor" units="_" value="1.008427" />
<HeatOfFormation name="IG heat of formation" units="J/kmol" value="-5.1833E+08" />
<GibbsEnergyOfFormation name="IG Gibbs energy of formation" units="J/kmol" value="-9.689554E+07" />
<AbsEntropy name="IG absolute entropy" units="J/kmol/K" value="931461.1" />
<HeatOfCombustion name="Standard net heat of combustion LHV" units="J/kmol" value="-1.124888E+10" />
<IdealGasHeatCapacityCp name="Ideal gas heat capacity" units="J/kmol/K">
  <eqno value="16" />
  <A value="182347.4" />
  <B value="-500" />
  <C value="14.01535" />
  <D value="0" />
  <E value="0" />
  <Tmin units="K" value="255" />
  <Tmax units="K" value="1500" />
  </IdealGasHeatCapacityCp>
<SurfaceTension name="Surface tension" units="N/m">
  <eqno value="116" />
  <A value="0" />
  <B value="0" />
  <C value="0" />
  <D value="0.0284863" />
  <E value="0.0284863" />
  <Tmin units="K" value="273" />
  <Tmax units="K" value="771.8783" />
  </SurfaceTension>
<AntoineVaporPressure name="Antoine" units="Pa">
  <eqno value="10" />
  <A value="21.15296" />
  <B value="4504.843" />
  <C value="-136.7888" />
  <Tmin units="K" value="483.7868" />
  <Tmax units="K" value="771.8783" />
  </AntoineVaporPressure>
<FullerVolume name="Fuller et al. diffusion volume" units="_" value="374.56" />
<Parachor name="Parachor" units="kg0.25.m3/s0.5/kmol" value="0.141053" />
<SpecificGravity name="Specific gravity" units="_" value="0.888" />
<Charge name="Charge" units="_" value="0" />
<UniquacR name="UNIQUAC r" units="_" value="13.1304" />
<UniquacQ name="UNIQUAC q" units="_" value="10.79" />
<UnifacVLE name="UNIFAC">
  <group id="1" value="1" />
  <group id="2" value="12" />
  <group id="6" value="2" />
  <group id="22" value="1" />
  </UnifacVLE>
<UnifacLLE name="UNIFAC-LLE">
  <group id="1" value="1" />
  <group id="2" value="12" />
  <group id="6" value="2" />
  <group id="25" value="1" />
  </UnifacLLE>
<Asog name="ASOG">
  <group id="1" value="2" />
  <group id="2" value="12" />
  <group id="6" value="2" />
  <group id="22" value="1" />
  </Asog>
<Umr name="UMR">
  <group id="1" value="1" />
  <group id="2" value="12" />
  <group id="6" value="2" />
  <group id="22" value="1" />
  </Umr>
<ModifiedUnifac name="Modified UNIFAC">
  <group id="1" value="1" />
  <group id="2" value="10" />
  <group id="6" value="2" />
  <group id="21" value="1" />
  </ModifiedUnifac>
<CAS name="CAS number" value="112-63-0" />
<Smiles name="SMILES" value="CCCCC/C=C\C/C=C\CCCCCCCC(=O)OC" />
</compound>

