<compound>
<LibraryIndex name="Index" value="23498" />
<CompoundID name="Name" value="methyl ethyl carbonate" />
<StructureFormula name="Structure" value="CH3(OCOO)CH2CH3" />
<Family name="Family" value="45" />
<CriticalTemperature name="Critical temperature" units="K" value="566" />
<CriticalPressure name="Critical pressure" units="Pa" value="3828647" />
<CriticalVolume name="Critical volume" units="m3/kmol" value="0.30149" />
<CriticalCompressibility name="Critical compressibility factor" units="_" value="0.24531" />
<NormalBoilingPointTemperature name="Normal boiling point" units="K" value="380.15" />
<NormalMeltingPointTemperature name="Melting point" units="K" value="258.65" />
<MolecularWeight name="Molecular weight" units="kg/kmol" value="104.1045" />
<LiquidVolumeAtNormalBoilingPoint name="Liquid molar volume at normal boiling point" units="m3/kmol" value="0.1108" />
<AcentricityFactor name="Acentric factor" units="_" value="0.370218" />
<SolubilityParameter name="Solubility parameter" units="J0.5/m1.5" value="20328.39" />
<VanDerWaalsVolume name="Van der Waals volume" units="m3/kmol" value="0.0615386" />
<VanDerWaalsArea name="Van der Waals area" units="m2/kmol" value="9.065E+08" />
<HeatOfFormation name="IG heat of formation" units="J/kmol" value="-6.0225E+08" />
<GibbsEnergyOfFormation name="IG Gibbs energy of formation" units="J/kmol" value="-4.5762E+08" />
<AbsEntropy name="IG absolute entropy" units="J/kmol/K" value="464889" />
<HeatOfCombustion name="Standard net heat of combustion LHV" units="J/kmol" value="-2.09995E+09" />
<VaporPressure name="Vapour pressure" units="Pa">
  <eqno value="10" />
  <A value="21.71522" />
  <B value="3376.596" />
  <C value="-49.461" />
  <Tmin units="K" value="273" />
  <Tmax units="K" value="565.932" />
  </VaporPressure>
<HeatOfVaporization name="Heat of vaporization" units="J/kmol">
  <eqno value="106" />
  <A value="5.635896E+07" />
  <B value="0.38" />
  <C value="0" />
  <D value="0" />
  <E value="0" />
  <Tmin units="K" value="269.976" />
  <Tmax units="K" value="565.93" />
  </HeatOfVaporization>
<SolidHeatCapacityCp name="Solid heat capacity" units="J/kmol/K">
  <eqno value="1" />
  <A value="144300" />
  <Tmin units="K" value="0" />
  <Tmax units="K" value="348.49" />
  </SolidHeatCapacityCp>
<IdealGasHeatCapacityCp name="Ideal gas heat capacity" units="J/kmol/K">
  <eqno value="16" />
  <A value="55151.77" />
  <B value="-500" />
  <C value="12.69215" />
  <D value="0" />
  <E value="0" />
  <Tmin units="K" value="255" />
  <Tmax units="K" value="1500" />
  </IdealGasHeatCapacityCp>
<VaporViscosity name="Vapour viscosity" units="Pa.s">
  <eqno value="2" />
  <A value="-0.0000018456" />
  <B value="2.3505E-08" />
  <Tmin units="K" value="203.08" />
  <Tmax units="K" value="1000" />
  </VaporViscosity>
<SurfaceTension name="Surface tension" units="N/m">
  <eqno value="116" />
  <A value="0" />
  <B value="0" />
  <C value="0" />
  <D value="0.0219363" />
  <E value="0.0219363" />
  <Tmin units="K" value="258.65" />
  <Tmax units="K" value="566" />
  </SurfaceTension>
<RPPHeatCapacityCp name="Ideal gas heat capacity (RPP)" units="J/kmol/K">
  <eqno value="4" />
  <A value="6744.2" />
  <B value="268.73" />
  <C value="-0.12137" />
  <D value="0.000020359" />
  <Tmin units="K" value="104.55" />
  <Tmax units="K" value="1500" />
  </RPPHeatCapacityCp>
<AntoineVaporPressure name="Antoine" units="Pa">
  <eqno value="10" />
  <A value="21.71526" />
  <B value="3376.626" />
  <C value="-49.45911" />
  <Tmin units="K" value="273" />
  <Tmax units="K" value="565.93" />
  </AntoineVaporPressure>
<COSTALDVolume name="COSTLD characteristic volume (V*)" units="m3/kmol" value="0.329198" />
<DiameterLJ name="Lennard Jones diameter" units="m" value="4.355639E-10" />
<EnergyLJ name="Lennard Jones energy" units="K" value="360.5232" />
<RacketParameter name="Rackett parameter" units="_" value="0.24531" />
<FullerVolume name="Fuller et al. diffusion volume" units="_" value="100.41" />
<MatthiasCopemanC2 name="Mathias-Copeman C2" units="_" value="0.31086" />
<Parachor name="Parachor" units="kg0.25.m3/s0.5/kmol" value="0.0385887" />
<SpecificGravity name="Specific gravity" units="_" value="1" />
<Charge name="Charge" units="_" value="0" />
<CostaldAcentricFactor name="SRK acentric factor" units="_" value="0.31086" />
<WilsonVolume name="Wilson volume" units="m3/kmol" value="0.1108" />
<UniquacR name="UNIQUAC r" units="_" value="4.0566" />
<UniquacQ name="UNIQUAC q" units="_" value="3.626" />
<ChaoSeaderAcentricFactor name="Chao-Seader acentric factor" units="_" value="0.31086" />
<ChaoSeaderLiquidVolume name="Chao-Seader liquid volume" units="m3/kmol" value="0.1108" />
<UnifacVLE name="UNIFAC">
  <group id="1" value="2" />
  <group id="2" value="1" />
  <group id="120" value="1" />
  </UnifacVLE>
<Asog name="ASOG">
  <group id="1" value="2" />
  <group id="21" value="1" />
  <group id="22" value="1" />
  </Asog>
<Umr name="UMR">
  <group id="1" value="2" />
  <group id="2" value="1" />
  <group id="120" value="1" />
  </Umr>
<ModifiedUnifac name="Modified UNIFAC">
  <group id="1" value="1" />
  <group id="114" value="1" />
  </ModifiedUnifac>
<CAS name="CAS number" value="623-53-0" />
<Smiles name="SMILES" value="CCOC(=O)OC" />
</compound>

