<compound>
<LibraryIndex name="Index" value="1723" />
<CompoundID name="Name" value="monoethanolamine" />
<StructureFormula name="Structure" value="HOCH2CH2NH2" />
<Family name="Family" value="68" />
<CriticalTemperature name="Critical temperature" units="K" value="671.4" />
<CriticalPressure name="Critical pressure" units="Pa" value="8030000" />
<CriticalVolume name="Critical volume" units="m3/kmol" value="0.225" />
<CriticalCompressibility name="Critical compressibility factor" units="_" value="0.284" />
<NormalBoilingPointTemperature name="Normal boiling point" units="K" value="444.15" />
<NormalMeltingPointTemperature name="Melting point" units="K" value="283.65" />
<TriplePointTemperature name="Triple point temperature" units="K" value="283.65" />
<TriplePointPressure name="Triple point pressure" units="Pa" value="13.3683" />
<MolecularWeight name="Molecular weight" units="kg/kmol" value="61.08308" />
<LiquidVolumeAtNormalBoilingPoint name="Liquid molar volume at normal boiling point" units="m3/kmol" value="0.0603415" />
<AcentricityFactor name="Acentric factor" units="_" value="0.550815" />
<RadiusOfGyration name="Radius of gyration" units="m" value="1.826E-10" />
<SolubilityParameter name="Solubility parameter" units="J0.5/m1.5" value="31830" />
<DipoleMoment name="Dipole moment" units="Coulomb.m" value="2.59E-30" />
<VanDerWaalsVolume name="Van der Waals volume" units="m3/kmol" value="0.03904" />
<VanDerWaalsArea name="Van der Waals area" units="m2/kmol" value="5.9E+08" />
<HeatOfFormation name="IG heat of formation" units="J/kmol" value="-1.96E+08" />
<GibbsEnergyOfFormation name="IG Gibbs energy of formation" units="J/kmol" value="-1.033E+08" />
<AbsEntropy name="IG absolute entropy" units="J/kmol/K" value="320000" />
<HeatOfFusionAtMeltingPoint name="Heat of fusion at melting point" units="J/kmol" value="2.0496E+07" />
<MatthiasCopemanC1 name="Mathias-Copeman C1" units="_" value="1.289594" />
<HeatOfCombustion name="Standard net heat of combustion LHV" units="J/kmol" value="-1.363E+09" />
<SolidDensity name="Solid density" units="kmol/m3">
  <eqno value="2" />
  <A value="21.251" />
  <B value="-0.0083183" />
  <C value="0" />
  <D value="0" />
  <E value="0" />
  <Tmin units="K" value="113.46" />
  <Tmax units="K" value="283.65" />
  </SolidDensity>
<LiquidDensity name="Liquid density" units="kmol/m3">
  <eqno value="105" />
  <A value="0.648" />
  <B value="0.18183" />
  <C value="678.21" />
  <D value="0.17947" />
  <Tmin units="K" value="283.15" />
  <Tmax units="K" value="678.2" />
  </LiquidDensity>
<VaporPressure name="Vapour pressure" units="Pa">
  <eqno value="10" />
  <A value="23.09274" />
  <B value="4319.625" />
  <C value="-69.95024" />
  <Tmin units="K" value="283.65" />
  <Tmax units="K" value="678.2" />
  </VaporPressure>
<HeatOfVaporization name="Heat of vaporization" units="J/kmol">
  <eqno value="106" />
  <A value="1.012031E+08" />
  <B value="1.976961" />
  <C value="-4.399887" />
  <D value="4.906054" />
  <E value="-1.945886" />
  <Tmin units="K" value="283.65" />
  <Tmax units="K" value="595.14" />
  </HeatOfVaporization>
<SolidHeatCapacityCp name="Solid heat capacity" units="J/kmol/K">
  <eqno value="100" />
  <A value="15188" />
  <B value="144.03" />
  <C value="3.6142" />
  <D value="-0.019701" />
  <E value="0.000034165" />
  <Tmin units="K" value="50" />
  <Tmax units="K" value="283.65" />
  </SolidHeatCapacityCp>
<LiquidHeatCapacityCp name="Liquid heat capacity" units="J/kmol/K">
  <eqno value="4" />
  <A value="78653.42" />
  <B value="311.4162" />
  <C value="-0.0607137" />
  <D value="-2.713217E-06" />
  <E value="-0.000017988" />
  <Tmin units="K" value="293.15" />
  <Tmax units="K" value="443.15" />
  </LiquidHeatCapacityCp>
<IdealGasHeatCapacityCp name="Ideal gas heat capacity" units="J/kmol/K">
  <eqno value="16" />
  <A value="50668" />
  <B value="-516.86" />
  <C value="12.167" />
  <D value="0.00008641" />
  <E value="2.8656E-10" />
  <Tmin units="K" value="273" />
  <Tmax units="K" value="1500" />
  </IdealGasHeatCapacityCp>
<SecondVirialCoefficient name="Second virial coefficient" units="m3/kmol">
  <eqno value="104" />
  <A value="0.13635" />
  <B value="-174.62" />
  <C value="-48.233" />
  <D value="-16405" />
  <E value="4380.8" />
  <Tmin units="K" value="339.1" />
  <Tmax units="K" value="1500" />
  </SecondVirialCoefficient>
<LiquidViscosity name="Liquid viscosity" units="Pa.s">
  <eqno value="101" />
  <A value="-370.3" />
  <B value="17780" />
  <C value="54.624" />
  <D value="-0.000051065" />
  <E value="2" />
  <Tmin units="K" value="283.65" />
  <Tmax units="K" value="542.56" />
  </LiquidViscosity>
<VaporViscosity name="Vapour viscosity" units="Pa.s">
  <eqno value="102" />
  <A value="5.78881E-08" />
  <B value="0.876532" />
  <C value="75.00276" />
  <D value="628.0161" />
  <Tmin units="K" value="283.65" />
  <Tmax units="K" value="1000" />
  </VaporViscosity>
<LiquidThermalConductivity name="Liquid thermal conductivity" units="W/m/K">
  <eqno value="16" />
  <A value="-0.37218" />
  <B value="78.8" />
  <C value="-1.5916" />
  <D value="0.0043895" />
  <E value="-0.0000053291" />
  <Tmin units="K" value="283.65" />
  <Tmax units="K" value="583.15" />
  </LiquidThermalConductivity>
<VaporThermalConductivity name="Vapour thermal conductivity" units="W/m/K">
  <eqno value="102" />
  <A value="-9539.9" />
  <B value="0.39852" />
  <C value="-1.7433E+09" />
  <D value="-6.3715E+10" />
  <Tmin units="K" value="283.65" />
  <Tmax units="K" value="1000" />
  </VaporThermalConductivity>
<SurfaceTension name="Surface tension" units="N/m">
  <eqno value="16" />
  <A value="-0.067139" />
  <B value="-7.9" />
  <C value="-1.90607" />
  <D value="-0.0004719" />
  <E value="-0.0000009533" />
  <Tmin units="K" value="270" />
  <Tmax units="K" value="600" />
  </SurfaceTension>
<RPPHeatCapacityCp name="Ideal gas heat capacity (RPP)" units="J/kmol/K">
  <eqno value="4" />
  <A value="11350" />
  <B value="298.51" />
  <C value="-0.17683" />
  <D value="0.000043009" />
  <Tmin units="K" value="273" />
  <Tmax units="K" value="1500" />
  </RPPHeatCapacityCp>
<RelativeStaticPermittivity name="Relative static permittivity" units="_">
  <eqno value="120" />
  <A value="-16.337" />
  <B value="-10000" />
  <C value="-113.16" />
  <Tmin units="K" value="283.65" />
  <Tmax units="K" value="450" />
  </RelativeStaticPermittivity>
<AntoineVaporPressure name="Antoine" units="Pa">
  <eqno value="10" />
  <A value="22.027" />
  <B value="3495.2" />
  <C value="-109.62" />
  <Tmin units="K" value="370" />
  <Tmax units="K" value="545" />
  </AntoineVaporPressure>
<LiquidViscosityRPS name="Liquid viscosity (RPS)" units="Pa.s">
  <eqno value="12" />
  <A value="1.9272" />
  <B value="-0.020626" />
  <Tmin units="K" value="283.65" />
  <Tmax units="K" value="542.56" />
  </LiquidViscosityRPS>
<COSTALDVolume name="COSTLD characteristic volume (V*)" units="m3/kmol" value="0.20696" />
<DiameterLJ name="Lennard Jones diameter" units="m" value="5.140324E-10" />
<EnergyLJ name="Lennard Jones energy" units="K" value="431.8628" />
<RacketParameter name="Rackett parameter" units="_" value="0.266147" />
<FullerVolume name="Fuller et al. diffusion volume" units="_" value="51.539" />
<MatthiasCopemanC2 name="Mathias-Copeman C2" units="_" value="0" />
<Parachor name="Parachor" units="kg0.25.m3/s0.5/kmol" value="0.0284" />
<SpecificGravity name="Specific gravity" units="_" value="1.01697" />
<Charge name="Charge" units="_" value="0" />
<CostaldAcentricFactor name="SRK acentric factor" units="_" value="0.550815" />
<WilsonVolume name="Wilson volume" units="m3/kmol" value="0.0603415" />
<UniquacR name="UNIQUAC r" units="_" value="3.0436" />
<UniquacQ name="UNIQUAC q" units="_" value="2.976" />
<MatthiasCopemanC3 name="Mathias-Copeman C3" units="_" value="0" />
<ChaoSeaderAcentricFactor name="Chao-Seader acentric factor" units="_" value="0.446737" />
<ChaoSeaderSolubilityParameter name="Chao-Seader solubility parameter" units="J0.5/m1.5" value="31830" />
<ChaoSeaderLiquidVolume name="Chao-Seader liquid volume" units="m3/kmol" value="0.0603415" />
<UnifacVLE name="UNIFAC">
  <group id="2" value="1" />
  <group id="15" value="1" />
  <group id="30" value="1" />
  </UnifacVLE>
<Asog name="ASOG">
  <group id="2" value="2" />
  <group id="15" value="1" />
  <group id="29" value="1" />
  </Asog>
<Umr name="UMR">
  <group id="2" value="1" />
  <group id="15" value="1" />
  <group id="30" value="1" />
  </Umr>
<ModifiedUnifac name="Modified UNIFAC">
  <group id="2" value="1" />
  <group id="14" value="1" />
  <group id="29" value="1" />
  </ModifiedUnifac>
<CAS name="CAS number" value="141-43-5" />
<Smiles name="SMILES" value="NCCO" />
</compound>

