<compound>
<LibraryIndex name="Index" value="2732" />
<CompoundID name="Name" value="n-aminoethyl ethanolamine" />
<StructureFormula name="Structure" value="H2NCH2CH2NHCH2CH2OH" />
<Family name="Family" value="68" />
<CriticalTemperature name="Critical temperature" units="K" value="698" />
<CriticalPressure name="Critical pressure" units="Pa" value="4460000" />
<CriticalVolume name="Critical volume" units="m3/kmol" value="0.387" />
<CriticalCompressibility name="Critical compressibility factor" units="_" value="0.252" />
<NormalBoilingPointTemperature name="Normal boiling point" units="K" value="517" />
<MolecularWeight name="Molecular weight" units="kg/kmol" value="104.1509" />
<LiquidVolumeAtNormalBoilingPoint name="Liquid molar volume at normal boiling point" units="m3/kmol" value="0.101519" />
<AcentricityFactor name="Acentric factor" units="_" value="1.04726" />
<RadiusOfGyration name="Radius of gyration" units="m" value="3.821E-10" />
<SolubilityParameter name="Solubility parameter" units="J0.5/m1.5" value="29230" />
<VanDerWaalsVolume name="Van der Waals volume" units="m3/kmol" value="0.06758" />
<VanDerWaalsArea name="Van der Waals area" units="m2/kmol" value="9.59E+08" />
<HeatOfFormation name="IG heat of formation" units="J/kmol" value="-1.91E+08" />
<GibbsEnergyOfFormation name="IG Gibbs energy of formation" units="J/kmol" value="3810000" />
<AbsEntropy name="IG absolute entropy" units="J/kmol/K" value="447000" />
<HeatOfFusionAtMeltingPoint name="Heat of fusion at melting point" units="J/kmol" value="0" />
<MatthiasCopemanC1 name="Mathias-Copeman C1" units="_" value="1.9" />
<HeatOfCombustion name="Standard net heat of combustion LHV" units="J/kmol" value="-2.74E+09" />
<SolidDensity name="Solid density" units="kmol/m3">
  <eqno value="2" />
  <A value="11.8" />
  <B value="-1.6252E-16" />
  <C value="0" />
  <D value="0" />
  <E value="0" />
  <Tmin units="K" value="0" />
  <Tmax units="K" value="9.5" />
  </SolidDensity>
<LiquidDensity name="Liquid density" units="kmol/m3">
  <eqno value="105" />
  <A value="0.76828" />
  <B value="0.25238" />
  <C value="698" />
  <D value="0.28565" />
  <Tmin units="K" value="273.15" />
  <Tmax units="K" value="675.64" />
  </LiquidDensity>
<VaporPressure name="Vapour pressure" units="Pa">
  <eqno value="101" />
  <A value="214.43" />
  <B value="-18769" />
  <C value="-27.15" />
  <D value="0.00001141" />
  <E value="2" />
  <Tmin units="K" value="273.15" />
  <Tmax units="K" value="698" />
  </VaporPressure>
<HeatOfVaporization name="Heat of vaporization" units="J/kmol">
  <eqno value="106" />
  <A value="1.2005E+08" />
  <B value="0.3465" />
  <C value="0.971" />
  <D value="-1.7132" />
  <E value="0.81091" />
  <Tmin units="K" value="273.15" />
  <Tmax units="K" value="675.64" />
  </HeatOfVaporization>
<LiquidHeatCapacityCp name="Liquid heat capacity" units="J/kmol/K">
  <eqno value="16" />
  <A value="65604" />
  <B value="-121.74" />
  <C value="11.802" />
  <D value="0.0023485" />
  <E value="-7.9478E-07" />
  <Tmin units="K" value="349" />
  <Tmax units="K" value="519" />
  </LiquidHeatCapacityCp>
<IdealGasHeatCapacityCp name="Ideal gas heat capacity" units="J/kmol/K">
  <eqno value="16" />
  <A value="75533" />
  <B value="-495.37" />
  <C value="12.77" />
  <D value="0.00015714" />
  <E value="-4.9852E-08" />
  <Tmin units="K" value="273" />
  <Tmax units="K" value="1500" />
  </IdealGasHeatCapacityCp>
<SecondVirialCoefficient name="Second virial coefficient" units="m3/kmol">
  <eqno value="104" />
  <A value="0.088651" />
  <B value="-82.595" />
  <C value="-177.94" />
  <D value="449510" />
  <E value="-2249800" />
  <Tmin units="K" value="349" />
  <Tmax units="K" value="2000" />
  </SecondVirialCoefficient>
<LiquidViscosity name="Liquid viscosity" units="Pa.s">
  <eqno value="101" />
  <A value="-27.66295" />
  <B value="5326.5" />
  <C value="1.362383" />
  <D value="-1.706454E-06" />
  <E value="2" />
  <Tmin units="K" value="273.15" />
  <Tmax units="K" value="598" />
  </LiquidViscosity>
<VaporViscosity name="Vapour viscosity" units="Pa.s">
  <eqno value="102" />
  <A value="1.2606E-07" />
  <B value="0.76222" />
  <C value="173.4" />
  <D value="-8594.2" />
  <Tmin units="K" value="273.15" />
  <Tmax units="K" value="1000" />
  </VaporViscosity>
<LiquidThermalConductivity name="Liquid thermal conductivity" units="W/m/K">
  <eqno value="16" />
  <A value="-0.1257" />
  <B value="-10.607" />
  <C value="-0.88928" />
  <D value="-0.00060102" />
  <E value="-5.9478E-07" />
  <Tmin units="K" value="273" />
  <Tmax units="K" value="517" />
  </LiquidThermalConductivity>
<VaporThermalConductivity name="Vapour thermal conductivity" units="W/m/K">
  <eqno value="102" />
  <A value="0.00019261" />
  <B value="0.93731" />
  <C value="615.43" />
  <D value="23918" />
  <Tmin units="K" value="274" />
  <Tmax units="K" value="1000" />
  </VaporThermalConductivity>
<SurfaceTension name="Surface tension" units="N/m">
  <eqno value="16" />
  <A value="-0.046419" />
  <B value="12.352" />
  <C value="-2.0792" />
  <D value="-0.001082" />
  <E value="-0.0000005495" />
  <Tmin units="K" value="273.15" />
  <Tmax units="K" value="675.64" />
  </SurfaceTension>
<RPPHeatCapacityCp name="Ideal gas heat capacity (RPP)" units="J/kmol/K">
  <eqno value="4" />
  <A value="2031.6" />
  <B value="577.66" />
  <C value="-0.34597" />
  <D value="0.000080678" />
  <Tmin units="K" value="273" />
  <Tmax units="K" value="1500" />
  </RPPHeatCapacityCp>
<RelativeStaticPermittivity name="Relative static permittivity" units="_">
  <eqno value="120" />
  <A value="-8.924" />
  <B value="-9007" />
  <C value="0" />
  <Tmin units="K" value="223.15" />
  <Tmax units="K" value="698" />
  </RelativeStaticPermittivity>
<AntoineVaporPressure name="Antoine" units="Pa">
  <eqno value="10" />
  <A value="24.561" />
  <B value="5615.5" />
  <C value="-88.315" />
  <Tmin units="K" value="273.15" />
  <Tmax units="K" value="698" />
  </AntoineVaporPressure>
<LiquidViscosityRPS name="Liquid viscosity (RPS)" units="Pa.s">
  <eqno value="12" />
  <A value="7.9594" />
  <B value="-0.034824" />
  <Tmin units="K" value="273.15" />
  <Tmax units="K" value="517" />
  </LiquidViscosityRPS>
<COSTALDVolume name="COSTLD characteristic volume (V*)" units="m3/kmol" value="0.363122" />
<DiameterLJ name="Lennard Jones diameter" units="m" value="7.108882E-10" />
<EnergyLJ name="Lennard Jones energy" units="K" value="319.0146" />
<RacketParameter name="Rackett parameter" units="_" value="0.252" />
<FullerVolume name="Fuller et al. diffusion volume" units="_" value="95.088" />
<MatthiasCopemanC2 name="Mathias-Copeman C2" units="_" value="0" />
<Parachor name="Parachor" units="kg0.25.m3/s0.5/kmol" value="0.04649" />
<SpecificGravity name="Specific gravity" units="_" value="1.0254" />
<Charge name="Charge" units="_" value="0" />
<CostaldAcentricFactor name="SRK acentric factor" units="_" value="1.04726" />
<WilsonVolume name="Wilson volume" units="m3/kmol" value="0.101519" />
<UniquacR name="UNIQUAC r" units="_" value="4.925" />
<UniquacQ name="UNIQUAC q" units="_" value="4.452" />
<MatthiasCopemanC3 name="Mathias-Copeman C3" units="_" value="0" />
<ChaoSeaderAcentricFactor name="Chao-Seader acentric factor" units="_" value="1.04726" />
<ChaoSeaderSolubilityParameter name="Chao-Seader solubility parameter" units="J0.5/m1.5" value="29230" />
<ChaoSeaderLiquidVolume name="Chao-Seader liquid volume" units="m3/kmol" value="0.101519" />
<UnifacVLE name="UNIFAC">
  <group id="2" value="2" />
  <group id="15" value="1" />
  <group id="30" value="1" />
  <group id="33" value="1" />
  </UnifacVLE>
<Asog name="ASOG">
  <group id="2" value="4" />
  <group id="15" value="1" />
  <group id="29" value="1" />
  <group id="30" value="1" />
  </Asog>
<Umr name="UMR">
  <group id="2" value="2" />
  <group id="15" value="1" />
  <group id="30" value="1" />
  <group id="33" value="1" />
  </Umr>
<ModifiedUnifac name="Modified UNIFAC">
  <group id="2" value="2" />
  <group id="14" value="1" />
  <group id="29" value="1" />
  <group id="32" value="1" />
  </ModifiedUnifac>
<CAS name="CAS number" value="111-41-1" />
<Smiles name="SMILES" value="NCCNCCO" />
</compound>

