<compound>
<LibraryIndex name="Index" value="1256" />
<CompoundID name="Name" value="n-butyric acid" />
<StructureFormula name="Structure" value="CH3CH2CH2COOH" />
<Family name="Family" value="50" />
<CriticalTemperature name="Critical temperature" units="K" value="624" />
<CriticalPressure name="Critical pressure" units="Pa" value="4030000" />
<CriticalVolume name="Critical volume" units="m3/kmol" value="0.292" />
<CriticalCompressibility name="Critical compressibility factor" units="_" value="0.227" />
<NormalBoilingPointTemperature name="Normal boiling point" units="K" value="436.87" />
<NormalMeltingPointTemperature name="Melting point" units="K" value="267.95" />
<TriplePointTemperature name="Triple point temperature" units="K" value="267.95" />
<TriplePointPressure name="Triple point pressure" units="Pa" value="10.3" />
<MolecularWeight name="Molecular weight" units="kg/kmol" value="88.10513" />
<LiquidVolumeAtNormalBoilingPoint name="Liquid molar volume at normal boiling point" units="m3/kmol" value="0.09246" />
<AcentricityFactor name="Acentric factor" units="_" value="0.72" />
<RadiusOfGyration name="Radius of gyration" units="m" value="3.61E-10" />
<SolubilityParameter name="Solubility parameter" units="J0.5/m1.5" value="20180" />
<DipoleMoment name="Dipole moment" units="Coulomb.m" value="5.5E-30" />
<VanDerWaalsVolume name="Van der Waals volume" units="m3/kmol" value="0.05365" />
<VanDerWaalsArea name="Van der Waals area" units="m2/kmol" value="7.88E+08" />
<HeatOfFormation name="IG heat of formation" units="J/kmol" value="-4.758E+08" />
<GibbsEnergyOfFormation name="IG Gibbs energy of formation" units="J/kmol" value="-3.6E+08" />
<AbsEntropy name="IG absolute entropy" units="J/kmol/K" value="360100" />
<HeatOfFusionAtMeltingPoint name="Heat of fusion at melting point" units="J/kmol" value="1.159E+07" />
<MatthiasCopemanC1 name="Mathias-Copeman C1" units="_" value="1.34915" />
<HeatOfCombustion name="Standard net heat of combustion LHV" units="J/kmol" value="-2.008E+09" />
<SolidDensity name="Solid density" units="kmol/m3">
  <eqno value="2" />
  <A value="14.238" />
  <B value="-0.0069956" />
  <Tmin units="K" value="90.15" />
  <Tmax units="K" value="267.95" />
  </SolidDensity>
<LiquidDensity name="Liquid density" units="kmol/m3">
  <eqno value="105" />
  <A value="0.702" />
  <B value="0.22902" />
  <C value="628.16" />
  <D value="0.24275" />
  <Tmin units="K" value="267.95" />
  <Tmax units="K" value="628.15" />
  </LiquidDensity>
<VaporPressure name="Vapour pressure" units="Pa">
  <eqno value="101" />
  <A value="54.31047" />
  <B value="-7692.649" />
  <C value="-4.148708" />
  <D value="2.624319E-07" />
  <E value="2" />
  <Tmin units="K" value="267.95" />
  <Tmax units="K" value="625.15" />
  </VaporPressure>
<HeatOfVaporization name="Heat of vaporization" units="J/kmol">
  <eqno value="106" />
  <A value="5.1387E+07" />
  <B value="1.1517" />
  <C value="-2.7656" />
  <D value="2.6617" />
  <E value="-0.66983" />
  <Tmin units="K" value="250" />
  <Tmax units="K" value="615.7" />
  </HeatOfVaporization>
<SolidHeatCapacityCp name="Solid heat capacity" units="J/kmol/K">
  <eqno value="100" />
  <A value="-1354100" />
  <B value="26070" />
  <C value="-174.59" />
  <D value="0.51718" />
  <E value="-0.00056018" />
  <Tmin units="K" value="150" />
  <Tmax units="K" value="298.15" />
  </SolidHeatCapacityCp>
<LiquidHeatCapacityCp name="Liquid heat capacity" units="J/kmol/K">
  <eqno value="16" />
  <A value="135560" />
  <B value="664.7" />
  <C value="1.9592" />
  <D value="0.027685" />
  <E value="-0.000020111" />
  <Tmin units="K" value="267.89" />
  <Tmax units="K" value="436.42" />
  </LiquidHeatCapacityCp>
<IdealGasHeatCapacityCp name="Ideal gas heat capacity" units="J/kmol/K">
  <eqno value="16" />
  <A value="75565" />
  <B value="-613.25" />
  <C value="12.671" />
  <D value="-0.000058773" />
  <E value="-2.4845E-08" />
  <Tmin units="K" value="267.95" />
  <Tmax units="K" value="1500" />
  </IdealGasHeatCapacityCp>
<LiquidViscosity name="Liquid viscosity" units="Pa.s">
  <eqno value="101" />
  <A value="14.241" />
  <B value="534.99" />
  <C value="-4.0411" />
  <D value="0.0000053437" />
  <E value="2" />
  <Tmin units="K" value="267.95" />
  <Tmax units="K" value="524" />
  </LiquidViscosity>
<VaporViscosity name="Vapour viscosity" units="Pa.s">
  <eqno value="102" />
  <A value="2.2745E-08" />
  <B value="1.0055" />
  <C value="13.097" />
  <D value="182.58" />
  <Tmin units="K" value="267.95" />
  <Tmax units="K" value="1000" />
  </VaporViscosity>
<LiquidThermalConductivity name="Liquid thermal conductivity" units="W/m/K">
  <eqno value="16" />
  <A value="-0.043955" />
  <B value="57.698" />
  <C value="-1.8847" />
  <D value="0.00050649" />
  <E value="-0.0000013441" />
  <Tmin units="K" value="259.29" />
  <Tmax units="K" value="573.15" />
  </LiquidThermalConductivity>
<VaporThermalConductivity name="Vapour thermal conductivity" units="W/m/K">
  <eqno value="3" />
  <A value="-0.00409203" />
  <B value="0.000031254" />
  <C value="6.389989E-08" />
  <Tmin units="K" value="267.95" />
  <Tmax units="K" value="706.95" />
  </VaporThermalConductivity>
<SurfaceTension name="Surface tension" units="N/m">
  <eqno value="16" />
  <A value="-0.0076127" />
  <B value="373.93" />
  <C value="-6.0915" />
  <D value="0.0084349" />
  <E value="-0.000011979" />
  <Tmin units="K" value="267.95" />
  <Tmax units="K" value="615.7" />
  </SurfaceTension>
<RPPHeatCapacityCp name="Ideal gas heat capacity (RPP)" units="J/kmol/K">
  <eqno value="4" />
  <A value="9096.2" />
  <B value="429.44" />
  <C value="-0.26202" />
  <D value="0.000057916" />
  <Tmin units="K" value="267.95" />
  <Tmax units="K" value="1500" />
  </RPPHeatCapacityCp>
<RelativeStaticPermittivity name="Relative static permittivity" units="_">
  <eqno value="120" />
  <A value="-2.197557" />
  <B value="-1450" />
  <C value="-8.7" />
  <Tmin units="K" value="274.15" />
  <Tmax units="K" value="444.15" />
  </RelativeStaticPermittivity>
<AntoineVaporPressure name="Antoine" units="Pa">
  <eqno value="10" />
  <A value="22.149" />
  <B value="3703.9" />
  <C value="-87.868" />
  <Tmin units="K" value="374.82" />
  <Tmax units="K" value="560.79" />
  </AntoineVaporPressure>
<LiquidViscosityRPS name="Liquid viscosity (RPS)" units="Pa.s">
  <eqno value="13" />
  <A value="1.4201" />
  <B value="-0.037098" />
  <C value="0.000035218" />
  <Tmin units="K" value="267.95" />
  <Tmax units="K" value="436.42" />
  </LiquidViscosityRPS>
<COSTALDVolume name="COSTLD characteristic volume (V*)" units="m3/kmol" value="0.285694" />
<DiameterLJ name="Lennard Jones diameter" units="m" value="7.336263E-10" />
<EnergyLJ name="Lennard Jones energy" units="K" value="195.7901" />
<FullerVolume name="Fuller et al. diffusion volume" units="_" value="94.3" />
<MatthiasCopemanC2 name="Mathias-Copeman C2" units="_" value="0" />
<Parachor name="Parachor" units="kg0.25.m3/s0.5/kmol" value="0.0372" />
<SpecificGravity name="Specific gravity" units="_" value="0.95962" />
<Charge name="Charge" units="_" value="0" />
<CostaldAcentricFactor name="SRK acentric factor" units="_" value="0.683" />
<WilsonVolume name="Wilson volume" units="m3/kmol" value="0.0924567" />
<UniquacR name="UNIQUAC r" units="_" value="3.5512" />
<UniquacQ name="UNIQUAC q" units="_" value="3.152" />
<MatthiasCopemanC3 name="Mathias-Copeman C3" units="_" value="0" />
<ChaoSeaderAcentricFactor name="Chao-Seader acentric factor" units="_" value="0.683" />
<ChaoSeaderSolubilityParameter name="Chao-Seader solubility parameter" units="J0.5/m1.5" value="20262.7" />
<ChaoSeaderLiquidVolume name="Chao-Seader liquid volume" units="m3/kmol" value="0.0924567" />
<UnifacVLE name="UNIFAC">
  <group id="1" value="1" />
  <group id="2" value="2" />
  <group id="43" value="1" />
  </UnifacVLE>
<UnifacLLE name="UNIFAC-LLE">
  <group id="1" value="1" />
  <group id="2" value="2" />
  <group id="23" value="1" />
  </UnifacLLE>
<Umr name="UMR">
  <group id="1" value="1" />
  <group id="2" value="2" />
  <group id="43" value="1" />
  </Umr>
<ModifiedUnifac name="Modified UNIFAC">
  <group id="1" value="1" />
  <group id="2" value="2" />
  <group id="42" value="1" />
  </ModifiedUnifac>
<CAS name="CAS number" value="107-92-6" />
<Smiles name="SMILES" value="CCCC(=O)O" />
</compound>

