<compound>
<LibraryIndex name="Index" value="75" />
<CompoundID name="Name" value="n-docosane" />
<StructureFormula name="Structure" value="CH3(CH2)20CH3" />
<Family name="Family" value="1" />
<CriticalTemperature name="Critical temperature" units="K" value="787" />
<CriticalPressure name="Critical pressure" units="Pa" value="1060000" />
<CriticalVolume name="Critical volume" units="m3/kmol" value="1.29" />
<CriticalCompressibility name="Critical compressibility factor" units="_" value="0.208971" />
<NormalBoilingPointTemperature name="Normal boiling point" units="K" value="641.75" />
<NormalMeltingPointTemperature name="Melting point" units="K" value="318.25" />
<TriplePointTemperature name="Triple point temperature" units="K" value="317.15" />
<TriplePointPressure name="Triple point pressure" units="Pa" value="0.00359575" />
<MolecularWeight name="Molecular weight" units="kg/kmol" value="310.6006" />
<LiquidVolumeAtNormalBoilingPoint name="Liquid molar volume at normal boiling point" units="m3/kmol" value="0.393226" />
<AcentricityFactor name="Acentric factor" units="_" value="0.973" />
<RadiusOfGyration name="Radius of gyration" units="m" value="8.799E-10" />
<SolubilityParameter name="Solubility parameter" units="J0.5/m1.5" value="15800" />
<DipoleMoment name="Dipole moment" units="Coulomb.m" value="0" />
<VanDerWaalsVolume name="Van der Waals volume" units="m3/kmol" value="0.2319" />
<VanDerWaalsArea name="Van der Waals area" units="m2/kmol" value="3.124E+09" />
<HeatOfFormation name="IG heat of formation" units="J/kmol" value="-4.985E+08" />
<GibbsEnergyOfFormation name="IG Gibbs energy of formation" units="J/kmol" value="1.307E+08" />
<AbsEntropy name="IG absolute entropy" units="J/kmol/K" value="1019000" />
<HeatOfFusionAtMeltingPoint name="Heat of fusion at melting point" units="J/kmol" value="4.8953E+07" />
<MatthiasCopemanC1 name="Mathias-Copeman C1" units="_" value="1.744627" />
<HeatOfCombustion name="Standard net heat of combustion LHV" units="J/kmol" value="-1.357E+10" />
<SolidDensity name="Solid density" units="kmol/m3">
  <eqno value="100" />
  <A value="3.2062" />
  <B value="-0.0012637" />
  <C value="0" />
  <D value="0" />
  <E value="0" />
  <Tmin units="K" value="126.86" />
  <Tmax units="K" value="317.15" />
  </SolidDensity>
<LiquidDensity name="Liquid density" units="kmol/m3">
  <eqno value="105" />
  <A value="0.00088994" />
  <B value="0.017172" />
  <C value="808.83" />
  <D value="0.094179" />
  <Tmin units="K" value="293.15" />
  <Tmax units="K" value="787" />
  </LiquidDensity>
<VaporPressure name="Vapour pressure" units="Pa">
  <eqno value="101" />
  <A value="270.663" />
  <B value="-22731.61" />
  <C value="-35.81794" />
  <D value="0.0000193308" />
  <E value="2" />
  <Tmin units="K" value="317.15" />
  <Tmax units="K" value="787" />
  </VaporPressure>
<HeatOfVaporization name="Heat of vaporization" units="J/kmol">
  <eqno value="106" />
  <A value="1.5383E+08" />
  <B value="1.0955" />
  <C value="-1.2067" />
  <D value="1.3977" />
  <E value="-0.85529" />
  <Tmin units="K" value="317.15" />
  <Tmax units="K" value="787" />
  </HeatOfVaporization>
<SolidHeatCapacityCp name="Solid heat capacity" units="J/kmol/K">
  <eqno value="100" />
  <A value="22469" />
  <B value="2585.1" />
  <C value="-4.4911" />
  <D value="0.010078" />
  <E value="-0.000009896" />
  <Tmin units="K" value="50" />
  <Tmax units="K" value="317.15" />
  </SolidHeatCapacityCp>
<LiquidHeatCapacityCp name="Liquid heat capacity" units="J/kmol/K">
  <eqno value="16" />
  <A value="94846" />
  <B value="-114.81" />
  <C value="13.466" />
  <D value="0.000531" />
  <E value="3.3532E-07" />
  <Tmin units="K" value="317.15" />
  <Tmax units="K" value="740" />
  </LiquidHeatCapacityCp>
<IdealGasHeatCapacityCp name="Ideal gas heat capacity" units="J/kmol/K">
  <eqno value="16" />
  <A value="291820" />
  <B value="-567.43" />
  <C value="14.157" />
  <D value="0.00012912" />
  <E value="-4.9166E-08" />
  <Tmin units="K" value="273" />
  <Tmax units="K" value="1500" />
  </IdealGasHeatCapacityCp>
<SecondVirialCoefficient name="Second virial coefficient" units="m3/kmol">
  <eqno value="104" />
  <A value="0.76617" />
  <B value="-496.25" />
  <C value="-894.79" />
  <D value="-1799300" />
  <E value="3495100" />
  <Tmin units="K" value="393.5" />
  <Tmax units="K" value="1500" />
  </SecondVirialCoefficient>
<LiquidViscosity name="Liquid viscosity" units="Pa.s">
  <eqno value="101" />
  <A value="-27.314" />
  <B value="2728.1" />
  <C value="2.3358" />
  <D value="-0.0000013135" />
  <E value="2" />
  <Tmin units="K" value="317.15" />
  <Tmax units="K" value="787" />
  </LiquidViscosity>
<VaporViscosity name="Vapour viscosity" units="Pa.s">
  <eqno value="102" />
  <A value="2.8858E-07" />
  <B value="0.62154" />
  <C value="714.54" />
  <D value="4582.3" />
  <Tmin units="K" value="317.15" />
  <Tmax units="K" value="1000" />
  </VaporViscosity>
<LiquidThermalConductivity name="Liquid thermal conductivity" units="W/m/K">
  <eqno value="16" />
  <A value="-0.148" />
  <B value="-22.716" />
  <C value="-0.91136" />
  <D value="-0.00059496" />
  <E value="-3.4759E-07" />
  <Tmin units="K" value="317.15" />
  <Tmax units="K" value="641.75" />
  </LiquidThermalConductivity>
<VaporThermalConductivity name="Vapour thermal conductivity" units="W/m/K">
  <eqno value="102" />
  <A value="-270.77" />
  <B value="1.0546" />
  <C value="-5.8977E+09" />
  <D value="-1.0935E+11" />
  <Tmin units="K" value="317.15" />
  <Tmax units="K" value="1000" />
  </VaporThermalConductivity>
<SurfaceTension name="Surface tension" units="N/m">
  <eqno value="16" />
  <A value="-0.03075" />
  <B value="-73.068" />
  <C value="-1.9074" />
  <D value="-0.002422" />
  <E value="7.0531E-07" />
  <Tmin units="K" value="317.15" />
  <Tmax units="K" value="787" />
  </SurfaceTension>
<RPPHeatCapacityCp name="Ideal gas heat capacity (RPP)" units="J/kmol/K">
  <eqno value="4" />
  <A value="-16805" />
  <B value="2089.4" />
  <C value="-1.1669" />
  <D value="0.00025179" />
  <Tmin units="K" value="300" />
  <Tmax units="K" value="1500" />
  </RPPHeatCapacityCp>
<RelativeStaticPermittivity name="Relative static permittivity" units="_">
  <eqno value="120" />
  <A value="-1.153082" />
  <B value="-1000" />
  <C value="-6" />
  <Tmin units="K" value="304.15" />
  <Tmax units="K" value="474.15" />
  </RelativeStaticPermittivity>
<AntoineVaporPressure name="Antoine" units="Pa">
  <eqno value="10" />
  <A value="21.952" />
  <B value="5415.6" />
  <C value="-122.39" />
  <Tmin units="K" value="490.15" />
  <Tmax units="K" value="712.81" />
  </AntoineVaporPressure>
<LiquidViscosityRPS name="Liquid viscosity (RPS)" units="Pa.s">
  <eqno value="12" />
  <A value="-2.7996" />
  <B value="-0.0093671" />
  <Tmin units="K" value="317.15" />
  <Tmax units="K" value="643.03" />
  </LiquidViscosityRPS>
<COSTALDVolume name="COSTLD characteristic volume (V*)" units="m3/kmol" value="1.567299" />
<DiameterLJ name="Lennard Jones diameter" units="m" value="1.316045E-09" />
<EnergyLJ name="Lennard Jones energy" units="K" value="188.4938" />
<RacketParameter name="Rackett parameter" units="_" value="0.230005" />
<FullerVolume name="Fuller et al. diffusion volume" units="_" value="456.06" />
<MatthiasCopemanC2 name="Mathias-Copeman C2" units="_" value="0" />
<Parachor name="Parachor" units="kg0.25.m3/s0.5/kmol" value="0.167898" />
<SpecificGravity name="Specific gravity" units="_" value="0.795185" />
<Charge name="Charge" units="_" value="0" />
<CostaldAcentricFactor name="SRK acentric factor" units="_" value="0.973" />
<WilsonVolume name="Wilson volume" units="m3/kmol" value="0.393226" />
<UniquacR name="UNIQUAC r" units="_" value="15.2902" />
<UniquacQ name="UNIQUAC q" units="_" value="12.496" />
<MatthiasCopemanC3 name="Mathias-Copeman C3" units="_" value="0" />
<ChaoSeaderAcentricFactor name="Chao-Seader acentric factor" units="_" value="0.973" />
<ChaoSeaderSolubilityParameter name="Chao-Seader solubility parameter" units="J0.5/m1.5" value="15800" />
<ChaoSeaderLiquidVolume name="Chao-Seader liquid volume" units="m3/kmol" value="0.393226" />
<UnifacVLE name="UNIFAC">
  <group id="1" value="2" />
  <group id="2" value="20" />
  </UnifacVLE>
<UnifacLLE name="UNIFAC-LLE">
  <group id="1" value="2" />
  <group id="2" value="20" />
  </UnifacLLE>
<Asog name="ASOG">
  <group id="1" value="2" />
  <group id="2" value="20" />
  </Asog>
<GCmethod name="PPR78">
  <group id="1" value="2" />
  <group id="2" value="20" />
  </GCmethod>
<Umr name="UMR">
  <group id="1" value="2" />
  <group id="2" value="20" />
  </Umr>
<ModifiedUnifac name="Modified UNIFAC">
  <group id="1" value="2" />
  <group id="2" value="20" />
  </ModifiedUnifac>
<CAS name="CAS number" value="629-97-0" />
<Smiles name="SMILES" value="CCCCCCCCCCCCCCCCCCCCCC" />
</compound>

