<compound>
<LibraryIndex name="Index" value="79" />
<CompoundID name="Name" value="n-hexacosane" />
<StructureFormula name="Structure" value="CH3(CH2)24CH3" />
<Family name="Family" value="1" />
<CriticalTemperature name="Critical temperature" units="K" value="819" />
<CriticalPressure name="Critical pressure" units="Pa" value="910000" />
<CriticalVolume name="Critical volume" units="m3/kmol" value="1.52" />
<CriticalCompressibility name="Critical compressibility factor" units="_" value="0.203126" />
<NormalBoilingPointTemperature name="Normal boiling point" units="K" value="685.35" />
<NormalMeltingPointTemperature name="Melting point" units="K" value="329.55" />
<TriplePointTemperature name="Triple point temperature" units="K" value="329.25" />
<TriplePointPressure name="Triple point pressure" units="Pa" value="0.000515816" />
<MolecularWeight name="Molecular weight" units="kg/kmol" value="366.707" />
<LiquidVolumeAtNormalBoilingPoint name="Liquid molar volume at normal boiling point" units="m3/kmol" value="0.4561" />
<AcentricityFactor name="Acentric factor" units="_" value="1.15444" />
<RadiusOfGyration name="Radius of gyration" units="m" value="9.83E-10" />
<SolubilityParameter name="Solubility parameter" units="J0.5/m1.5" value="15800" />
<DipoleMoment name="Dipole moment" units="Coulomb.m" value="0" />
<VanDerWaalsVolume name="Van der Waals volume" units="m3/kmol" value="0.2729" />
<VanDerWaalsArea name="Van der Waals area" units="m2/kmol" value="3.664E+09" />
<HeatOfFormation name="IG heat of formation" units="J/kmol" value="-5.814E+08" />
<GibbsEnergyOfFormation name="IG Gibbs energy of formation" units="J/kmol" value="1.636E+08" />
<AbsEntropy name="IG absolute entropy" units="J/kmol/K" value="1176000" />
<HeatOfFusionAtMeltingPoint name="Heat of fusion at melting point" units="J/kmol" value="5.9496E+07" />
<MatthiasCopemanC1 name="Mathias-Copeman C1" units="_" value="1.875734" />
<HeatOfCombustion name="Standard net heat of combustion LHV" units="J/kmol" value="-1.6E+10" />
<SolidDensity name="Solid density" units="kmol/m3">
  <eqno value="2" />
  <A value="3.1664" />
  <B value="-0.0021136" />
  <C value="0" />
  <D value="0" />
  <E value="0" />
  <Tmin units="K" value="292.25" />
  <Tmax units="K" value="329.25" />
  </SolidDensity>
<LiquidDensity name="Liquid density" units="kmol/m3">
  <eqno value="105" />
  <A value="0.0012458" />
  <B value="0.021983" />
  <C value="844.7" />
  <D value="0.10464" />
  <Tmin units="K" value="273.15" />
  <Tmax units="K" value="819" />
  </LiquidDensity>
<VaporPressure name="Vapour pressure" units="Pa">
  <eqno value="101" />
  <A value="-181.3952" />
  <B value="-2296.288" />
  <C value="31.90668" />
  <D value="-0.0000256231" />
  <E value="2" />
  <Tmin units="K" value="329.25" />
  <Tmax units="K" value="819" />
  </VaporPressure>
<HeatOfVaporization name="Heat of vaporization" units="J/kmol">
  <eqno value="106" />
  <A value="2.0502E+08" />
  <B value="2.0708" />
  <C value="-3.8957" />
  <D value="4.3419" />
  <E value="-2.0579" />
  <Tmin units="K" value="329.25" />
  <Tmax units="K" value="819" />
  </HeatOfVaporization>
<SolidHeatCapacityCp name="Solid heat capacity" units="J/kmol/K">
  <eqno value="100" />
  <A value="-38418" />
  <B value="3706.2" />
  <C value="-2.4141" />
  <D value="-0.050428" />
  <E value="0.00014632" />
  <Tmin units="K" value="13.83" />
  <Tmax units="K" value="320.36" />
  </SolidHeatCapacityCp>
<LiquidHeatCapacityCp name="Liquid heat capacity" units="J/kmol/K">
  <eqno value="16" />
  <A value="657670" />
  <B value="-651.68" />
  <C value="14.164" />
  <D value="-0.00036454" />
  <E value="7.7672E-07" />
  <Tmin units="K" value="320" />
  <Tmax units="K" value="750" />
  </LiquidHeatCapacityCp>
<IdealGasHeatCapacityCp name="Ideal gas heat capacity" units="J/kmol/K">
  <eqno value="16" />
  <A value="342560" />
  <B value="-564.25" />
  <C value="14.318" />
  <D value="0.00013185" />
  <E value="-5.001E-08" />
  <Tmin units="K" value="273" />
  <Tmax units="K" value="1500" />
  </IdealGasHeatCapacityCp>
<SecondVirialCoefficient name="Second virial coefficient" units="m3/kmol">
  <eqno value="104" />
  <A value="0.91137" />
  <B value="-367.77" />
  <C value="-1348.9" />
  <D value="-3484600" />
  <E value="6989300" />
  <Tmin units="K" value="409.5" />
  <Tmax units="K" value="1500" />
  </SecondVirialCoefficient>
<LiquidViscosity name="Liquid viscosity" units="Pa.s">
  <eqno value="101" />
  <A value="-92.13292" />
  <B value="5845.982" />
  <C value="12.08985" />
  <D value="-8.198834E-06" />
  <E value="2" />
  <Tmin units="K" value="329.25" />
  <Tmax units="K" value="813.15" />
  </LiquidViscosity>
<VaporViscosity name="Vapour viscosity" units="Pa.s">
  <eqno value="102" />
  <A value="2.7977E-07" />
  <B value="0.616" />
  <C value="732.48" />
  <D value="6359.2" />
  <Tmin units="K" value="329.25" />
  <Tmax units="K" value="1000" />
  </VaporViscosity>
<LiquidThermalConductivity name="Liquid thermal conductivity" units="W/m/K">
  <eqno value="16" />
  <A value="0.020148" />
  <B value="-211.96" />
  <C value="-0.39294" />
  <D value="-0.0031327" />
  <E value="1.9698E-07" />
  <Tmin units="K" value="329.25" />
  <Tmax units="K" value="685.35" />
  </LiquidThermalConductivity>
<VaporThermalConductivity name="Vapour thermal conductivity" units="W/m/K">
  <eqno value="102" />
  <A value="-164.53" />
  <B value="1.0626" />
  <C value="-4.163E+09" />
  <D value="-7.6944E+10" />
  <Tmin units="K" value="329.25" />
  <Tmax units="K" value="1000" />
  </VaporThermalConductivity>
<SurfaceTension name="Surface tension" units="N/m">
  <eqno value="16" />
  <A value="-0.066949" />
  <B value="-1.3964" />
  <C value="-2.0199" />
  <D value="-0.0011254" />
  <E value="0.0000003598" />
  <Tmin units="K" value="329.25" />
  <Tmax units="K" value="819" />
  </SurfaceTension>
<RPPHeatCapacityCp name="Ideal gas heat capacity (RPP)" units="J/kmol/K">
  <eqno value="4" />
  <A value="-19227" />
  <B value="2464" />
  <C value="-1.3788" />
  <D value="0.00029808" />
  <Tmin units="K" value="300" />
  <Tmax units="K" value="1500" />
  </RPPHeatCapacityCp>
<AntoineVaporPressure name="Antoine" units="Pa">
  <eqno value="10" />
  <A value="21.698" />
  <B value="5292.3" />
  <C value="-164.22" />
  <Tmin units="K" value="509.68" />
  <Tmax units="K" value="741.67" />
  </AntoineVaporPressure>
<LiquidViscosityRPS name="Liquid viscosity (RPS)" units="Pa.s">
  <eqno value="12" />
  <A value="-2.5609" />
  <B value="-0.0092454" />
  <Tmin units="K" value="329.25" />
  <Tmax units="K" value="813.15" />
  </LiquidViscosityRPS>
<COSTALDVolume name="COSTLD characteristic volume (V*)" units="m3/kmol" value="1.831535" />
<DiameterLJ name="Lennard Jones diameter" units="m" value="1.438745E-09" />
<EnergyLJ name="Lennard Jones energy" units="K" value="177.2562" />
<RacketParameter name="Rackett parameter" units="_" value="0.226541" />
<FullerVolume name="Fuller et al. diffusion volume" units="_" value="538.14" />
<MatthiasCopemanC2 name="Mathias-Copeman C2" units="_" value="0" />
<Parachor name="Parachor" units="kg0.25.m3/s0.5/kmol" value="0.197603" />
<SpecificGravity name="Specific gravity" units="_" value="0.803608" />
<Charge name="Charge" units="_" value="0" />
<CostaldAcentricFactor name="SRK acentric factor" units="_" value="1.03" />
<WilsonVolume name="Wilson volume" units="m3/kmol" value="0.4561" />
<UniquacR name="UNIQUAC r" units="_" value="17.9878" />
<UniquacQ name="UNIQUAC q" units="_" value="14.656" />
<MatthiasCopemanC3 name="Mathias-Copeman C3" units="_" value="0" />
<ChaoSeaderAcentricFactor name="Chao-Seader acentric factor" units="_" value="1.15444" />
<ChaoSeaderSolubilityParameter name="Chao-Seader solubility parameter" units="J0.5/m1.5" value="15800" />
<ChaoSeaderLiquidVolume name="Chao-Seader liquid volume" units="m3/kmol" value="0.4561" />
<UnifacVLE name="UNIFAC">
  <group id="1" value="2" />
  <group id="2" value="24" />
  </UnifacVLE>
<UnifacLLE name="UNIFAC-LLE">
  <group id="1" value="2" />
  <group id="2" value="24" />
  </UnifacLLE>
<Asog name="ASOG">
  <group id="1" value="2" />
  <group id="2" value="24" />
  </Asog>
<GCmethod name="PPR78">
  <group id="1" value="2" />
  <group id="2" value="24" />
  </GCmethod>
<Umr name="UMR">
  <group id="1" value="2" />
  <group id="2" value="24" />
  </Umr>
<ModifiedUnifac name="Modified UNIFAC">
  <group id="1" value="2" />
  <group id="2" value="24" />
  </ModifiedUnifac>
<CAS name="CAS number" value="630-01-3" />
<Smiles name="SMILES" value="CCCCCCCCCCCCCCCCCCCCCCCCCC" />
</compound>

