<compound>
<LibraryIndex name="Index" value="69" />
<CompoundID name="Name" value="n-heptadecane" />
<StructureFormula name="Structure" value="CH3(CH2)15CH3" />
<Family name="Family" value="1" />
<CriticalTemperature name="Critical temperature" units="K" value="736" />
<CriticalPressure name="Critical pressure" units="Pa" value="1340000" />
<CriticalVolume name="Critical volume" units="m3/kmol" value="1.103" />
<CriticalCompressibility name="Critical compressibility factor" units="_" value="0.242" />
<NormalBoilingPointTemperature name="Normal boiling point" units="K" value="574.56" />
<NormalMeltingPointTemperature name="Melting point" units="K" value="295.127" />
<TriplePointTemperature name="Triple point temperature" units="K" value="295.134" />
<TriplePointPressure name="Triple point pressure" units="Pa" value="0.0465559" />
<MolecularWeight name="Molecular weight" units="kg/kmol" value="240.4677" />
<LiquidVolumeAtNormalBoilingPoint name="Liquid molar volume at normal boiling point" units="m3/kmol" value="0.31045" />
<AcentricityFactor name="Acentric factor" units="_" value="0.762" />
<RadiusOfGyration name="Radius of gyration" units="m" value="7.355E-10" />
<SolubilityParameter name="Solubility parameter" units="J0.5/m1.5" value="16100" />
<DipoleMoment name="Dipole moment" units="Coulomb.m" value="0" />
<VanDerWaalsVolume name="Van der Waals volume" units="m3/kmol" value="0.1808" />
<VanDerWaalsArea name="Van der Waals area" units="m2/kmol" value="2.449E+09" />
<HeatOfFormation name="IG heat of formation" units="J/kmol" value="-3.939E+08" />
<GibbsEnergyOfFormation name="IG Gibbs energy of formation" units="J/kmol" value="9.083E+07" />
<AbsEntropy name="IG absolute entropy" units="J/kmol/K" value="820230" />
<HeatOfFusionAtMeltingPoint name="Heat of fusion at melting point" units="J/kmol" value="4.0459E+07" />
<MatthiasCopemanC1 name="Mathias-Copeman C1" units="_" value="1.7889" />
<HeatOfCombustion name="Standard net heat of combustion LHV" units="J/kmol" value="-1.05618E+10" />
<SolidDensity name="Solid density" units="kmol/m3">
  <eqno value="2" />
  <A value="4.0831" />
  <B value="-0.001532" />
  <C value="0" />
  <D value="0" />
  <E value="0" />
  <Tmin units="K" value="118.05" />
  <Tmax units="K" value="295.13" />
  </SolidDensity>
<LiquidDensity name="Liquid density" units="kmol/m3">
  <eqno value="105" />
  <A value="0.1972" />
  <B value="0.22446" />
  <C value="736" />
  <D value="0.27261" />
  <Tmin units="K" value="273.15" />
  <Tmax units="K" value="736" />
  </LiquidDensity>
<VaporPressure name="Vapour pressure" units="Pa">
  <eqno value="101" />
  <A value="230.4768" />
  <B value="-19512.15" />
  <C value="-29.73776" />
  <D value="0.0000119109" />
  <E value="2" />
  <Tmin units="K" value="295.13" />
  <Tmax units="K" value="736" />
  </VaporPressure>
<HeatOfVaporization name="Heat of vaporization" units="J/kmol">
  <eqno value="106" />
  <A value="1.1837E+08" />
  <B value="0.45937" />
  <C value="1.0501" />
  <D value="-1.8353" />
  <E value="0.77357" />
  <Tmin units="K" value="295.13" />
  <Tmax units="K" value="736" />
  </HeatOfVaporization>
<SolidHeatCapacityCp name="Solid heat capacity" units="J/kmol/K">
  <eqno value="100" />
  <A value="-59944" />
  <B value="3834.8" />
  <C value="-16.853" />
  <D value="0.031845" />
  <E value="0.0000086344" />
  <Tmin units="K" value="30.46" />
  <Tmax units="K" value="270.7" />
  </SolidHeatCapacityCp>
<LiquidHeatCapacityCp name="Liquid heat capacity" units="J/kmol/K">
  <eqno value="16" />
  <A value="341660" />
  <B value="-48.077" />
  <C value="11.234" />
  <D value="0.0041437" />
  <E value="-0.0000017269" />
  <Tmin units="K" value="295" />
  <Tmax units="K" value="575.3" />
  </LiquidHeatCapacityCp>
<IdealGasHeatCapacityCp name="Ideal gas heat capacity" units="J/kmol/K">
  <eqno value="16" />
  <A value="247870" />
  <B value="-663.74" />
  <C value="14.166" />
  <D value="-0.00017722" />
  <E value="5.7891E-08" />
  <Tmin units="K" value="200" />
  <Tmax units="K" value="1500" />
  </IdealGasHeatCapacityCp>
<SecondVirialCoefficient name="Second virial coefficient" units="m3/kmol">
  <eqno value="104" />
  <A value="0.44015" />
  <B value="-297.46" />
  <C value="-550.48" />
  <D value="-414510" />
  <E value="499680" />
  <Tmin units="K" value="366.69" />
  <Tmax units="K" value="1686.69" />
  </SecondVirialCoefficient>
<LiquidViscosity name="Liquid viscosity" units="Pa.s">
  <eqno value="101" />
  <A value="-77.193" />
  <B value="4597" />
  <C value="9.9892" />
  <D value="-0.0000084702" />
  <E value="2" />
  <Tmin units="K" value="293.15" />
  <Tmax units="K" value="588.15" />
  </LiquidViscosity>
<VaporViscosity name="Vapour viscosity" units="Pa.s">
  <eqno value="102" />
  <A value="3.2694E-07" />
  <B value="0.5961" />
  <C value="448.22" />
  <D value="45523" />
  <Tmin units="K" value="295.13" />
  <Tmax units="K" value="1000" />
  </VaporViscosity>
<LiquidThermalConductivity name="Liquid thermal conductivity" units="W/m/K">
  <eqno value="16" />
  <A value="-0.015537" />
  <B value="-239.33" />
  <C value="0.042685" />
  <D value="-0.0038367" />
  <E value="8.6547E-07" />
  <Tmin units="K" value="295.13" />
  <Tmax units="K" value="575.3" />
  </LiquidThermalConductivity>
<VaporThermalConductivity name="Vapour thermal conductivity" units="W/m/K">
  <eqno value="102" />
  <A value="-115.33" />
  <B value="1.0524" />
  <C value="-2.1515E+09" />
  <D value="-1.3137E+10" />
  <Tmin units="K" value="295.134" />
  <Tmax units="K" value="1000" />
  </VaporThermalConductivity>
<SurfaceTension name="Surface tension" units="N/m">
  <eqno value="16" />
  <A value="-0.038127" />
  <B value="-105.48" />
  <C value="-1.5195" />
  <D value="-0.0033062" />
  <E value="0.000001514" />
  <Tmin units="K" value="293.15" />
  <Tmax units="K" value="736" />
  </SurfaceTension>
<RPPHeatCapacityCp name="Ideal gas heat capacity (RPP)" units="J/kmol/K">
  <eqno value="100" />
  <A value="197990" />
  <B value="-76.576" />
  <C value="3.7692" />
  <D value="-0.0050387" />
  <E value="0.0000020333" />
  <Tmin units="K" value="200" />
  <Tmax units="K" value="1000" />
  </RPPHeatCapacityCp>
<AntoineVaporPressure name="Antoine" units="Pa">
  <eqno value="10" />
  <A value="21.204" />
  <B value="4403.1" />
  <C value="-120.35" />
  <Tmin units="K" value="448.16" />
  <Tmax units="K" value="650" />
  </AntoineVaporPressure>
<LiquidViscosityRPS name="Liquid viscosity (RPS)" units="Pa.s">
  <eqno value="12" />
  <A value="-3.0515" />
  <B value="-0.0099131" />
  <Tmin units="K" value="293.15" />
  <Tmax units="K" value="588.15" />
  </LiquidViscosityRPS>
<COSTALDVolume name="COSTLD characteristic volume (V*)" units="m3/kmol" value="1.149922" />
<DiameterLJ name="Lennard Jones diameter" units="m" value="1.058091E-09" />
<EnergyLJ name="Lennard Jones energy" units="K" value="290.7544" />
<RacketParameter name="Rackett parameter" units="_" value="0.242" />
<FullerVolume name="Fuller et al. diffusion volume" units="_" value="353.46" />
<MatthiasCopemanC2 name="Mathias-Copeman C2" units="_" value="-1.9601" />
<Parachor name="Parachor" units="kg0.25.m3/s0.5/kmol" value="0.128272" />
<SpecificGravity name="Specific gravity" units="_" value="0.779388" />
<Charge name="Charge" units="_" value="0" />
<CostaldAcentricFactor name="SRK acentric factor" units="_" value="0.762" />
<WilsonVolume name="Wilson volume" units="m3/kmol" value="0.31045" />
<UniquacR name="UNIQUAC r" units="_" value="11.9182" />
<UniquacQ name="UNIQUAC q" units="_" value="9.796" />
<MatthiasCopemanC3 name="Mathias-Copeman C3" units="_" value="4.6926" />
<ChaoSeaderAcentricFactor name="Chao-Seader acentric factor" units="_" value="0.762" />
<ChaoSeaderSolubilityParameter name="Chao-Seader solubility parameter" units="J0.5/m1.5" value="16100" />
<ChaoSeaderLiquidVolume name="Chao-Seader liquid volume" units="m3/kmol" value="0.31045" />
<UnifacVLE name="UNIFAC">
  <group id="1" value="2" />
  <group id="2" value="15" />
  </UnifacVLE>
<UnifacLLE name="UNIFAC-LLE">
  <group id="1" value="2" />
  <group id="2" value="15" />
  </UnifacLLE>
<Asog name="ASOG">
  <group id="1" value="2" />
  <group id="2" value="15" />
  </Asog>
<GCmethod name="PPR78">
  <group id="1" value="2" />
  <group id="2" value="15" />
  </GCmethod>
<Umr name="UMR">
  <group id="1" value="2" />
  <group id="2" value="15" />
  </Umr>
<ModifiedUnifac name="Modified UNIFAC">
  <group id="1" value="2" />
  <group id="2" value="15" />
  </ModifiedUnifac>
<CAS name="CAS number" value="629-78-7" />
<Smiles name="SMILES" value="CCCCCCCCCCCCCCCCC" />
</compound>

