<compound>
<LibraryIndex name="Index" value="46" />
<CompoundID name="Name" value="n-nonane" />
<StructureFormula name="Structure" value="CH3(CH2)7CH3" />
<Family name="Family" value="1" />
<CriticalTemperature name="Critical temperature" units="K" value="594.6" />
<CriticalPressure name="Critical pressure" units="Pa" value="2290000" />
<CriticalVolume name="Critical volume" units="m3/kmol" value="0.555" />
<CriticalCompressibility name="Critical compressibility factor" units="_" value="0.257" />
<NormalBoilingPointTemperature name="Normal boiling point" units="K" value="423.97" />
<NormalMeltingPointTemperature name="Melting point" units="K" value="219.66" />
<TriplePointTemperature name="Triple point temperature" units="K" value="219.66" />
<TriplePointPressure name="Triple point pressure" units="Pa" value="0.430583" />
<MolecularWeight name="Molecular weight" units="kg/kmol" value="128.2551" />
<LiquidVolumeAtNormalBoilingPoint name="Liquid molar volume at normal boiling point" units="m3/kmol" value="0.1797" />
<AcentricityFactor name="Acentric factor" units="_" value="0.443" />
<RadiusOfGyration name="Radius of gyration" units="m" value="4.814E-10" />
<SolubilityParameter name="Solubility parameter" units="J0.5/m1.5" value="15630" />
<DipoleMoment name="Dipole moment" units="Coulomb.m" value="0" />
<VanDerWaalsVolume name="Van der Waals volume" units="m3/kmol" value="0.09895" />
<VanDerWaalsArea name="Van der Waals area" units="m2/kmol" value="1.369E+09" />
<HeatOfFormation name="IG heat of formation" units="J/kmol" value="-2.2874E+08" />
<GibbsEnergyOfFormation name="IG Gibbs energy of formation" units="J/kmol" value="2.498E+07" />
<AbsEntropy name="IG absolute entropy" units="J/kmol/K" value="506400" />
<HeatOfFusionAtMeltingPoint name="Heat of fusion at melting point" units="J/kmol" value="1.547E+07" />
<MatthiasCopemanC1 name="Mathias-Copeman C1" units="_" value="0.99218" />
<HeatOfCombustion name="Standard net heat of combustion LHV" units="J/kmol" value="-5.68455E+09" />
<SolidDensity name="Solid density" units="kmol/m3">
  <eqno value="2" />
  <A value="7.4283" />
  <B value="-0.0023699" />
  <Tmin units="K" value="193.15" />
  <Tmax units="K" value="219.66" />
  </SolidDensity>
<LiquidDensity name="Liquid density" units="kmol/m3">
  <eqno value="105" />
  <A value="0.46379" />
  <B value="0.25569" />
  <C value="594.6" />
  <D value="0.27961" />
  <Tmin units="K" value="219.66" />
  <Tmax units="K" value="594.6" />
  </LiquidDensity>
<VaporPressure name="Vapour pressure" units="Pa">
  <eqno value="101" />
  <A value="34.38252" />
  <B value="-6235.412" />
  <C value="-1.153933" />
  <D value="-6.408486E-06" />
  <E value="2" />
  <Tmin units="K" value="219.66" />
  <Tmax units="K" value="594.6" />
  </VaporPressure>
<HeatOfVaporization name="Heat of vaporization" units="J/kmol">
  <eqno value="106" />
  <A value="8.427482E+07" />
  <B value="1.573752" />
  <C value="-1.785921" />
  <D value="0.692082" />
  <E value="0.00268541" />
  <Tmin units="K" value="219.63" />
  <Tmax units="K" value="594.6" />
  </HeatOfVaporization>
<SolidHeatCapacityCp name="Solid heat capacity" units="J/kmol/K">
  <eqno value="100" />
  <A value="-28596" />
  <B value="2152.5" />
  <C value="-8.5201" />
  <D value="0.0044645" />
  <E value="0.000055805" />
  <Tmin units="K" value="20" />
  <Tmax units="K" value="217.21" />
  </SolidHeatCapacityCp>
<LiquidHeatCapacityCp name="Liquid heat capacity" units="J/kmol/K">
  <eqno value="16" />
  <A value="263370" />
  <B value="-14466" />
  <C value="134.04" />
  <D value="-0.36823" />
  <E value="0.00038456" />
  <Tmin units="K" value="219.66" />
  <Tmax units="K" value="325" />
  </LiquidHeatCapacityCp>
<IdealGasHeatCapacityCp name="Ideal gas heat capacity" units="J/kmol/K">
  <eqno value="16" />
  <A value="137710" />
  <B value="-699.52" />
  <C value="13.613" />
  <D value="-0.00021735" />
  <E value="5.3695E-08" />
  <Tmin units="K" value="200" />
  <Tmax units="K" value="1500" />
  </IdealGasHeatCapacityCp>
<SecondVirialCoefficient name="Second virial coefficient" units="m3/kmol">
  <eqno value="104" />
  <A value="0.46778" />
  <B value="-570.55" />
  <C value="-46.368" />
  <D value="-127140" />
  <E value="315920" />
  <Tmin units="K" value="297.83" />
  <Tmax units="K" value="1500" />
  </SecondVirialCoefficient>
<LiquidViscosity name="Liquid viscosity" units="Pa.s">
  <eqno value="101" />
  <A value="-75.488" />
  <B value="3420.7" />
  <C value="10.183" />
  <D value="-0.000014836" />
  <E value="2" />
  <Tmin units="K" value="218.15" />
  <Tmax units="K" value="593.15" />
  </LiquidViscosity>
<VaporViscosity name="Vapour viscosity" units="Pa.s">
  <eqno value="102" />
  <A value="1.0363E-07" />
  <B value="0.77284" />
  <C value="221.39" />
  <D value="-190.1" />
  <Tmin units="K" value="219.66" />
  <Tmax units="K" value="1000" />
  </VaporViscosity>
<LiquidThermalConductivity name="Liquid thermal conductivity" units="W/m/K">
  <eqno value="16" />
  <A value="0.022998" />
  <B value="-23.224" />
  <C value="-1.6475" />
  <D value="-0.000633" />
  <E value="-0.0000035211" />
  <Tmin units="K" value="219.66" />
  <Tmax units="K" value="423.97" />
  </LiquidThermalConductivity>
<VaporThermalConductivity name="Vapour thermal conductivity" units="W/m/K">
  <eqno value="102" />
  <A value="-0.065472" />
  <B value="0.27739" />
  <C value="-3569.2" />
  <D value="-1629700" />
  <Tmin units="K" value="219.66" />
  <Tmax units="K" value="1000" />
  </VaporThermalConductivity>
<SurfaceTension name="Surface tension" units="N/m">
  <eqno value="16" />
  <A value="-0.0056952" />
  <B value="124.02" />
  <C value="-4.2139" />
  <D value="0.0035336" />
  <E value="-0.0000093096" />
  <Tmin units="K" value="219.66" />
  <Tmax units="K" value="594.6" />
  </SurfaceTension>
<RPPHeatCapacityCp name="Ideal gas heat capacity (RPP)" units="J/kmol/K">
  <eqno value="100" />
  <A value="101040" />
  <B value="38.039" />
  <C value="1.6975" />
  <D value="-0.0022264" />
  <E value="8.7011E-07" />
  <Tmin units="K" value="200" />
  <Tmax units="K" value="1000" />
  </RPPHeatCapacityCp>
<RelativeStaticPermittivity name="Relative static permittivity" units="_">
  <eqno value="120" />
  <A value="-1.4825" />
  <B value="-1000" />
  <C value="-6" />
  <Tmin units="K" value="274.15" />
  <Tmax units="K" value="444.15" />
  </RelativeStaticPermittivity>
<AntoineVaporPressure name="Antoine" units="Pa">
  <eqno value="10" />
  <A value="21.112" />
  <B value="3452.4" />
  <C value="-63.768" />
  <Tmin units="K" value="357.73" />
  <Tmax units="K" value="515.67" />
  </AntoineVaporPressure>
<LiquidViscosityRPS name="Liquid viscosity (RPS)" units="Pa.s">
  <eqno value="13" />
  <A value="-1.5536" />
  <B value="-0.024184" />
  <C value="0.000017792" />
  <Tmin units="K" value="218.15" />
  <Tmax units="K" value="593.15" />
  </LiquidViscosityRPS>
<COSTALDVolume name="COSTLD characteristic volume (V*)" units="m3/kmol" value="0.550289" />
<DiameterLJ name="Lennard Jones diameter" units="m" value="7.8299E-10" />
<EnergyLJ name="Lennard Jones energy" units="K" value="291.6737" />
<RacketParameter name="Rackett parameter" units="_" value="0.251687" />
<FullerVolume name="Fuller et al. diffusion volume" units="_" value="189.3" />
<MatthiasCopemanC2 name="Mathias-Copeman C2" units="_" value="1.1157" />
<Parachor name="Parachor" units="kg0.25.m3/s0.5/kmol" value="0.0686" />
<SpecificGravity name="Specific gravity" units="_" value="0.720247" />
<Charge name="Charge" units="_" value="0" />
<CostaldAcentricFactor name="SRK acentric factor" units="_" value="0.4437" />
<WilsonVolume name="Wilson volume" units="m3/kmol" value="0.179507" />
<UniquacR name="UNIQUAC r" units="_" value="6.523" />
<UniquacQ name="UNIQUAC q" units="_" value="5.476" />
<ApiSrkS2 name="API-SRK s2" units="_" value="0.005435" />
<MatthiasCopemanC3 name="Mathias-Copeman C3" units="_" value="-2.3143" />
<ChaoSeaderAcentricFactor name="Chao-Seader acentric factor" units="_" value="0.4439" />
<ChaoSeaderSolubilityParameter name="Chao-Seader solubility parameter" units="J0.5/m1.5" value="15648.08" />
<ChaoSeaderLiquidVolume name="Chao-Seader liquid volume" units="m3/kmol" value="0.1796" />
<UnifacVLE name="UNIFAC">
  <group id="1" value="2" />
  <group id="2" value="7" />
  </UnifacVLE>
<UnifacLLE name="UNIFAC-LLE">
  <group id="1" value="2" />
  <group id="2" value="7" />
  </UnifacLLE>
<Asog name="ASOG">
  <group id="1" value="2" />
  <group id="2" value="7" />
  </Asog>
<GCmethod name="PPR78">
  <group id="1" value="2" />
  <group id="2" value="7" />
  </GCmethod>
<Umr name="UMR">
  <group id="1" value="2" />
  <group id="2" value="7" />
  </Umr>
<ModifiedUnifac name="Modified UNIFAC">
  <group id="1" value="2" />
  <group id="2" value="7" />
  </ModifiedUnifac>
<CAS name="CAS number" value="111-84-2" />
<Smiles name="SMILES" value="CCCCCCCCC" />
</compound>

