<compound>
<LibraryIndex name="Index" value="82" />
<CompoundID name="Name" value="n-nonacosane" />
<StructureFormula name="Structure" value="CH3(CH2)27CH3" />
<Family name="Family" value="1" />
<CriticalTemperature name="Critical temperature" units="K" value="838" />
<CriticalPressure name="Critical pressure" units="Pa" value="826000" />
<CriticalVolume name="Critical volume" units="m3/kmol" value="1.69" />
<CriticalCompressibility name="Critical compressibility factor" units="_" value="0.2" />
<NormalBoilingPointTemperature name="Normal boiling point" units="K" value="713.95" />
<NormalMeltingPointTemperature name="Melting point" units="K" value="339.15" />
<TriplePointTemperature name="Triple point temperature" units="K" value="336.85" />
<TriplePointPressure name="Triple point pressure" units="Pa" value="0.0000684619" />
<MolecularWeight name="Molecular weight" units="kg/kmol" value="408.7867" />
<LiquidVolumeAtNormalBoilingPoint name="Liquid molar volume at normal boiling point" units="m3/kmol" value="0.523824" />
<AcentricityFactor name="Acentric factor" units="_" value="1.26531" />
<RadiusOfGyration name="Radius of gyration" units="m" value="1.066E-09" />
<SolubilityParameter name="Solubility parameter" units="J0.5/m1.5" value="15500" />
<DipoleMoment name="Dipole moment" units="Coulomb.m" value="0" />
<VanDerWaalsVolume name="Van der Waals volume" units="m3/kmol" value="0.30355" />
<VanDerWaalsArea name="Van der Waals area" units="m2/kmol" value="4.069E+09" />
<HeatOfFormation name="IG heat of formation" units="J/kmol" value="-6.435E+08" />
<GibbsEnergyOfFormation name="IG Gibbs energy of formation" units="J/kmol" value="1.879E+08" />
<AbsEntropy name="IG absolute entropy" units="J/kmol/K" value="1295000" />
<HeatOfFusionAtMeltingPoint name="Heat of fusion at melting point" units="J/kmol" value="6.6107E+07" />
<MatthiasCopemanC1 name="Mathias-Copeman C1" units="_" value="2.22" />
<HeatOfCombustion name="Standard net heat of combustion LHV" units="J/kmol" value="-1.782E+10" />
<SolidDensity name="Solid density" units="kmol/m3">
  <eqno value="100" />
  <A value="2.4398" />
  <B value="-0.00090537" />
  <C value="0" />
  <D value="0" />
  <E value="0" />
  <Tmin units="K" value="134.74" />
  <Tmax units="K" value="336.85" />
  </SolidDensity>
<LiquidDensity name="Liquid density" units="kmol/m3">
  <eqno value="105" />
  <A value="0.12857" />
  <B value="0.23366" />
  <C value="838" />
  <D value="0.30121" />
  <Tmin units="K" value="293.15" />
  <Tmax units="K" value="811.62" />
  </LiquidDensity>
<VaporPressure name="Vapour pressure" units="Pa">
  <eqno value="101" />
  <A value="-4.241455" />
  <B value="-11668.64" />
  <C value="5.534214" />
  <D value="-8.103778E-06" />
  <E value="2" />
  <Tmin units="K" value="336.85" />
  <Tmax units="K" value="838" />
  </VaporPressure>
<HeatOfVaporization name="Heat of vaporization" units="J/kmol">
  <eqno value="106" />
  <A value="1.9213E+08" />
  <B value="0.53282" />
  <C value="0.78359" />
  <D value="-0.96953" />
  <E value="0.062608" />
  <Tmin units="K" value="336.85" />
  <Tmax units="K" value="811.62" />
  </HeatOfVaporization>
<SolidHeatCapacityCp name="Solid heat capacity" units="J/kmol/K">
  <eqno value="102" />
  <A value="7750" />
  <B value="0.79267" />
  <C value="0" />
  <D value="0" />
  <Tmin units="K" value="50" />
  <Tmax units="K" value="336.85" />
  </SolidHeatCapacityCp>
<LiquidHeatCapacityCp name="Liquid heat capacity" units="J/kmol/K">
  <eqno value="16" />
  <A value="-89782" />
  <B value="-199.31" />
  <C value="14.448" />
  <D value="-0.00027681" />
  <E value="5.1812E-07" />
  <Tmin units="K" value="336.85" />
  <Tmax units="K" value="713.95" />
  </LiquidHeatCapacityCp>
<IdealGasHeatCapacityCp name="Ideal gas heat capacity" units="J/kmol/K">
  <eqno value="16" />
  <A value="383900" />
  <B value="-568.27" />
  <C value="14.435" />
  <D value="0.00012081" />
  <E value="-4.6695E-08" />
  <Tmin units="K" value="273" />
  <Tmax units="K" value="1500" />
  </IdealGasHeatCapacityCp>
<SecondVirialCoefficient name="Second virial coefficient" units="m3/kmol">
  <eqno value="104" />
  <A value="1.0196" />
  <B value="-209.07" />
  <C value="-1754" />
  <D value="-5213400" />
  <E value="1.0619E+07" />
  <Tmin units="K" value="419" />
  <Tmax units="K" value="1500" />
  </SecondVirialCoefficient>
<LiquidViscosity name="Liquid viscosity" units="Pa.s">
  <eqno value="101" />
  <A value="-11.543" />
  <B value="2141.6" />
  <C value="0.0076776" />
  <D value="-5.4408E-09" />
  <E value="2" />
  <Tmin units="K" value="336.85" />
  <Tmax units="K" value="838" />
  </LiquidViscosity>
<VaporViscosity name="Vapour viscosity" units="Pa.s">
  <eqno value="102" />
  <A value="2.7904E-07" />
  <B value="0.59854" />
  <C value="575.23" />
  <D value="50800" />
  <Tmin units="K" value="336.85" />
  <Tmax units="K" value="1000" />
  </VaporViscosity>
<LiquidThermalConductivity name="Liquid thermal conductivity" units="W/m/K">
  <eqno value="16" />
  <A value="-0.1272" />
  <B value="8.851" />
  <C value="-1.1267" />
  <D value="-0.00035068" />
  <E value="-3.6961E-07" />
  <Tmin units="K" value="336.85" />
  <Tmax units="K" value="713.95" />
  </LiquidThermalConductivity>
<VaporThermalConductivity name="Vapour thermal conductivity" units="W/m/K">
  <eqno value="102" />
  <A value="-257.69" />
  <B value="1.0697" />
  <C value="-7.2501E+09" />
  <D value="-1.1593E+11" />
  <Tmin units="K" value="336.85" />
  <Tmax units="K" value="1000" />
  </VaporThermalConductivity>
<SurfaceTension name="Surface tension" units="N/m">
  <eqno value="16" />
  <A value="-0.067484" />
  <B value="-24.584" />
  <C value="-1.877" />
  <D value="-0.0013532" />
  <E value="4.7688E-07" />
  <Tmin units="K" value="336.85" />
  <Tmax units="K" value="811.62" />
  </SurfaceTension>
<RPPHeatCapacityCp name="Ideal gas heat capacity (RPP)" units="J/kmol/K">
  <eqno value="4" />
  <A value="-22489" />
  <B value="2750.8" />
  <C value="-1.5436" />
  <D value="0.00033453" />
  <Tmin units="K" value="300" />
  <Tmax units="K" value="1500" />
  </RPPHeatCapacityCp>
<AntoineVaporPressure name="Antoine" units="Pa">
  <eqno value="10" />
  <A value="21.591" />
  <B value="5404.9" />
  <C value="-176.93" />
  <Tmin units="K" value="516.55" />
  <Tmax units="K" value="732.49" />
  </AntoineVaporPressure>
<LiquidViscosityRPS name="Liquid viscosity (RPS)" units="Pa.s">
  <eqno value="12" />
  <A value="-2.7316" />
  <B value="-0.0085077" />
  <Tmin units="K" value="336.85" />
  <Tmax units="K" value="713.95" />
  </LiquidViscosityRPS>
<COSTALDVolume name="COSTLD characteristic volume (V*)" units="m3/kmol" value="1.69" />
<DiameterLJ name="Lennard Jones diameter" units="m" value="1.533337E-09" />
<EnergyLJ name="Lennard Jones energy" units="K" value="166.673" />
<RacketParameter name="Rackett parameter" units="_" value="0.224829" />
<FullerVolume name="Fuller et al. diffusion volume" units="_" value="599.7" />
<MatthiasCopemanC2 name="Mathias-Copeman C2" units="_" value="0" />
<Parachor name="Parachor" units="kg0.25.m3/s0.5/kmol" value="0.207949" />
<SpecificGravity name="Specific gravity" units="_" value="0.809984" />
<Charge name="Charge" units="_" value="0" />
<CostaldAcentricFactor name="SRK acentric factor" units="_" value="1.31" />
<WilsonVolume name="Wilson volume" units="m3/kmol" value="0.523824" />
<UniquacR name="UNIQUAC r" units="_" value="20.011" />
<UniquacQ name="UNIQUAC q" units="_" value="16.276" />
<MatthiasCopemanC3 name="Mathias-Copeman C3" units="_" value="0" />
<ChaoSeaderAcentricFactor name="Chao-Seader acentric factor" units="_" value="1.26531" />
<ChaoSeaderSolubilityParameter name="Chao-Seader solubility parameter" units="J0.5/m1.5" value="15500" />
<ChaoSeaderLiquidVolume name="Chao-Seader liquid volume" units="m3/kmol" value="0.523824" />
<UnifacVLE name="UNIFAC">
  <group id="1" value="2" />
  <group id="2" value="27" />
  </UnifacVLE>
<UnifacLLE name="UNIFAC-LLE">
  <group id="1" value="2" />
  <group id="2" value="27" />
  </UnifacLLE>
<Asog name="ASOG">
  <group id="1" value="2" />
  <group id="2" value="27" />
  </Asog>
<GCmethod name="PPR78">
  <group id="1" value="2" />
  <group id="2" value="27" />
  </GCmethod>
<Umr name="UMR">
  <group id="1" value="2" />
  <group id="2" value="27" />
  </Umr>
<ModifiedUnifac name="Modified UNIFAC">
  <group id="1" value="2" />
  <group id="2" value="27" />
  </ModifiedUnifac>
<CAS name="CAS number" value="630-03-5" />
<Smiles name="SMILES" value="CCCCCCCCCCCCCCCCCCCCCCCCCCCCC" />
</compound>

