<compound>
<LibraryIndex name="Index" value="71" />
<CompoundID name="Name" value="n-nonadecane" />
<StructureFormula name="Structure" value="CH3(CH2)17CH3" />
<Family name="Family" value="1" />
<CriticalTemperature name="Critical temperature" units="K" value="760" />
<CriticalPressure name="Critical pressure" units="Pa" value="1230000" />
<CriticalVolume name="Critical volume" units="m3/kmol" value="1.1" />
<CriticalCompressibility name="Critical compressibility factor" units="_" value="0.215" />
<NormalBoilingPointTemperature name="Normal boiling point" units="K" value="603.75" />
<NormalMeltingPointTemperature name="Melting point" units="K" value="305.05" />
<TriplePointTemperature name="Triple point temperature" units="K" value="305.04" />
<TriplePointPressure name="Triple point pressure" units="Pa" value="0.0159089" />
<MolecularWeight name="Molecular weight" units="kg/kmol" value="268.5209" />
<LiquidVolumeAtNormalBoilingPoint name="Liquid molar volume at normal boiling point" units="m3/kmol" value="0.343701" />
<AcentricityFactor name="Acentric factor" units="_" value="0.8271" />
<RadiusOfGyration name="Radius of gyration" units="m" value="7.983E-10" />
<SolubilityParameter name="Solubility parameter" units="J0.5/m1.5" value="16200" />
<DipoleMoment name="Dipole moment" units="Coulomb.m" value="0" />
<VanDerWaalsVolume name="Van der Waals volume" units="m3/kmol" value="0.2012" />
<VanDerWaalsArea name="Van der Waals area" units="m2/kmol" value="2.719E+09" />
<HeatOfFormation name="IG heat of formation" units="J/kmol" value="-4.3514E+08" />
<GibbsEnergyOfFormation name="IG Gibbs energy of formation" units="J/kmol" value="1.075E+08" />
<AbsEntropy name="IG absolute entropy" units="J/kmol/K" value="898930" />
<HeatOfFusionAtMeltingPoint name="Heat of fusion at melting point" units="J/kmol" value="5.02E+07" />
<MatthiasCopemanC1 name="Mathias-Copeman C1" units="_" value="1.68901" />
<HeatOfCombustion name="Standard net heat of combustion LHV" units="J/kmol" value="-1.17812E+10" />
<SolidDensity name="Solid density" units="kmol/m3">
  <eqno value="2" />
  <A value="3.6651" />
  <B value="-0.0013337" />
  <C value="0" />
  <D value="0" />
  <E value="0" />
  <Tmin units="K" value="122.02" />
  <Tmax units="K" value="305.33" />
  </SolidDensity>
<LiquidDensity name="Liquid density" units="kmol/m3">
  <eqno value="105" />
  <A value="0.20149" />
  <B value="0.23831" />
  <C value="760" />
  <D value="0.29903" />
  <Tmin units="K" value="273.15" />
  <Tmax units="K" value="734.16" />
  </LiquidDensity>
<VaporPressure name="Vapour pressure" units="Pa">
  <eqno value="101" />
  <A value="182.4003" />
  <B value="-17843.62" />
  <C value="-22.48728" />
  <D value="7.349606E-06" />
  <E value="2" />
  <Tmin units="K" value="305.04" />
  <Tmax units="K" value="760.15" />
  </VaporPressure>
<HeatOfVaporization name="Heat of vaporization" units="J/kmol">
  <eqno value="106" />
  <A value="1.5404E+08" />
  <B value="1.2215" />
  <C value="-0.32899" />
  <D value="-1.0541" />
  <E value="0.6821" />
  <Tmin units="K" value="298.15" />
  <Tmax units="K" value="758" />
  </HeatOfVaporization>
<SolidHeatCapacityCp name="Solid heat capacity" units="J/kmol/K">
  <eqno value="100" />
  <A value="171240" />
  <B value="-1715.3" />
  <C value="33.643" />
  <D value="-0.15717" />
  <E value="0.00026291" />
  <Tmin units="K" value="90" />
  <Tmax units="K" value="300" />
  </SolidHeatCapacityCp>
<LiquidHeatCapacityCp name="Liquid heat capacity" units="J/kmol/K">
  <eqno value="16" />
  <A value="244790" />
  <B value="42.54" />
  <C value="11.446" />
  <D value="0.0046334" />
  <E value="-0.0000026668" />
  <Tmin units="K" value="305" />
  <Tmax units="K" value="603.05" />
  </LiquidHeatCapacityCp>
<IdealGasHeatCapacityCp name="Ideal gas heat capacity" units="J/kmol/K">
  <eqno value="16" />
  <A value="274480" />
  <B value="-648.39" />
  <C value="14.221" />
  <D value="-0.00011095" />
  <E value="3.3607E-08" />
  <Tmin units="K" value="200" />
  <Tmax units="K" value="1500" />
  </IdealGasHeatCapacityCp>
<SecondVirialCoefficient name="Second virial coefficient" units="m3/kmol">
  <eqno value="104" />
  <A value="0.32673" />
  <B value="14.285" />
  <C value="-813.39" />
  <D value="-219560" />
  <E value="-742530" />
  <Tmin units="K" value="377.97" />
  <Tmax units="K" value="1737.97" />
  </SecondVirialCoefficient>
<LiquidViscosity name="Liquid viscosity" units="Pa.s">
  <eqno value="101" />
  <A value="-84.761" />
  <B value="5101" />
  <C value="11.082" />
  <D value="-0.0000087239" />
  <E value="2" />
  <Tmin units="K" value="303.15" />
  <Tmax units="K" value="760" />
  </LiquidViscosity>
<VaporViscosity name="Vapour viscosity" units="Pa.s">
  <eqno value="102" />
  <A value="3.0651E-07" />
  <B value="0.58942" />
  <C value="341.93" />
  <D value="67425" />
  <Tmin units="K" value="305.04" />
  <Tmax units="K" value="1000" />
  </VaporViscosity>
<LiquidThermalConductivity name="Liquid thermal conductivity" units="W/m/K">
  <eqno value="16" />
  <A value="-0.057019" />
  <B value="73.111" />
  <C value="-2.1518" />
  <D value="0.0021618" />
  <E value="-0.0000035171" />
  <Tmin units="K" value="305.04" />
  <Tmax units="K" value="603.05" />
  </LiquidThermalConductivity>
<VaporThermalConductivity name="Vapour thermal conductivity" units="W/m/K">
  <eqno value="102" />
  <A value="0.000043333" />
  <B value="1.271" />
  <C value="2799.6" />
  <D value="138170" />
  <Tmin units="K" value="305.04" />
  <Tmax units="K" value="1000" />
  </VaporThermalConductivity>
<SurfaceTension name="Surface tension" units="N/m">
  <eqno value="16" />
  <A value="-0.0038905" />
  <B value="102.44" />
  <C value="-3.8793" />
  <D value="0.0021193" />
  <E value="-0.0000060226" />
  <Tmin units="K" value="293.15" />
  <Tmax units="K" value="758" />
  </SurfaceTension>
<RPPHeatCapacityCp name="Ideal gas heat capacity (RPP)" units="J/kmol/K">
  <eqno value="4" />
  <A value="6522.3" />
  <B value="1719.5" />
  <C value="-0.89542" />
  <D value="0.00017419" />
  <Tmin units="K" value="200" />
  <Tmax units="K" value="1500" />
  </RPPHeatCapacityCp>
<AntoineVaporPressure name="Antoine" units="Pa">
  <eqno value="10" />
  <A value="21.282" />
  <B value="4624.1" />
  <C value="-129.45" />
  <Tmin units="K" value="456.75" />
  <Tmax units="K" value="662.64" />
  </AntoineVaporPressure>
<LiquidViscosityRPS name="Liquid viscosity (RPS)" units="Pa.s">
  <eqno value="12" />
  <A value="-3.0344" />
  <B value="-0.0094781" />
  <Tmin units="K" value="303.15" />
  <Tmax units="K" value="623.15" />
  </LiquidViscosityRPS>
<COSTALDVolume name="COSTLD characteristic volume (V*)" units="m3/kmol" value="1.318669" />
<DiameterLJ name="Lennard Jones diameter" units="m" value="1.21838E-09" />
<EnergyLJ name="Lennard Jones energy" units="K" value="196.1125" />
<RacketParameter name="Rackett parameter" units="_" value="0.234962" />
<FullerVolume name="Fuller et al. diffusion volume" units="_" value="394.5" />
<MatthiasCopemanC2 name="Mathias-Copeman C2" units="_" value="0" />
<Parachor name="Parachor" units="kg0.25.m3/s0.5/kmol" value="0.142853" />
<SpecificGravity name="Specific gravity" units="_" value="0.787872" />
<Charge name="Charge" units="_" value="0" />
<CostaldAcentricFactor name="SRK acentric factor" units="_" value="0.8271" />
<WilsonVolume name="Wilson volume" units="m3/kmol" value="0.343701" />
<UniquacR name="UNIQUAC r" units="_" value="13.267" />
<UniquacQ name="UNIQUAC q" units="_" value="10.876" />
<MatthiasCopemanC3 name="Mathias-Copeman C3" units="_" value="0" />
<ChaoSeaderAcentricFactor name="Chao-Seader acentric factor" units="_" value="0.8271" />
<ChaoSeaderSolubilityParameter name="Chao-Seader solubility parameter" units="J0.5/m1.5" value="16200" />
<ChaoSeaderLiquidVolume name="Chao-Seader liquid volume" units="m3/kmol" value="0.343701" />
<UnifacVLE name="UNIFAC">
  <group id="1" value="2" />
  <group id="2" value="17" />
  </UnifacVLE>
<UnifacLLE name="UNIFAC-LLE">
  <group id="1" value="2" />
  <group id="2" value="17" />
  </UnifacLLE>
<Asog name="ASOG">
  <group id="1" value="2" />
  <group id="2" value="17" />
  </Asog>
<GCmethod name="PPR78">
  <group id="1" value="2" />
  <group id="2" value="17" />
  </GCmethod>
<Umr name="UMR">
  <group id="1" value="2" />
  <group id="2" value="17" />
  </Umr>
<ModifiedUnifac name="Modified UNIFAC">
  <group id="1" value="2" />
  <group id="2" value="17" />
  </ModifiedUnifac>
<CAS name="CAS number" value="629-92-5" />
<Smiles name="SMILES" value="CCCCCCCCCCCCCCCCCCC" />
</compound>

