<compound>
<LibraryIndex name="Index" value="27" />
<CompoundID name="Name" value="n-octane" />
<StructureFormula name="Structure" value="CH3(CH2)6CH3" />
<Family name="Family" value="1" />
<CriticalTemperature name="Critical temperature" units="K" value="568.7" />
<CriticalPressure name="Critical pressure" units="Pa" value="2490000" />
<CriticalVolume name="Critical volume" units="m3/kmol" value="0.492" />
<CriticalCompressibility name="Critical compressibility factor" units="_" value="0.259" />
<NormalBoilingPointTemperature name="Normal boiling point" units="K" value="398.82" />
<NormalMeltingPointTemperature name="Melting point" units="K" value="216.38" />
<TriplePointTemperature name="Triple point temperature" units="K" value="216.38" />
<TriplePointPressure name="Triple point pressure" units="Pa" value="2.1083" />
<MolecularWeight name="Molecular weight" units="kg/kmol" value="114.2285" />
<LiquidVolumeAtNormalBoilingPoint name="Liquid molar volume at normal boiling point" units="m3/kmol" value="0.16353" />
<AcentricityFactor name="Acentric factor" units="_" value="0.397" />
<RadiusOfGyration name="Radius of gyration" units="m" value="4.546E-10" />
<SolubilityParameter name="Solubility parameter" units="J0.5/m1.5" value="15490" />
<DipoleMoment name="Dipole moment" units="Coulomb.m" value="0" />
<VanDerWaalsVolume name="Van der Waals volume" units="m3/kmol" value="0.08872" />
<VanDerWaalsArea name="Van der Waals area" units="m2/kmol" value="1.234E+09" />
<HeatOfFormation name="IG heat of formation" units="J/kmol" value="-2.0875E+08" />
<GibbsEnergyOfFormation name="IG Gibbs energy of formation" units="J/kmol" value="1.6E+07" />
<AbsEntropy name="IG absolute entropy" units="J/kmol/K" value="467230" />
<HeatOfFusionAtMeltingPoint name="Heat of fusion at melting point" units="J/kmol" value="2.074E+07" />
<MatthiasCopemanC1 name="Mathias-Copeman C1" units="_" value="0.99752" />
<HeatOfCombustion name="Standard net heat of combustion LHV" units="J/kmol" value="-5.07415E+09" />
<SolidDensity name="Solid density" units="kmol/m3">
  <eqno value="2" />
  <A value="8.3409" />
  <B value="-0.0031515" />
  <Tmin units="K" value="133.15" />
  <Tmax units="K" value="216.38" />
  </SolidDensity>
<LiquidDensity name="Liquid density" units="kmol/m3">
  <eqno value="105" />
  <A value="0.4436" />
  <B value="0.23818" />
  <C value="568.77" />
  <D value="0.25171" />
  <Tmin units="K" value="216.38" />
  <Tmax units="K" value="568.76" />
  </LiquidDensity>
<VaporPressure name="Vapour pressure" units="Pa">
  <eqno value="101" />
  <A value="87.46069" />
  <B value="-7578.199" />
  <C value="-9.657211" />
  <D value="5.664818E-06" />
  <E value="2" />
  <Tmin units="K" value="216" />
  <Tmax units="K" value="568.74" />
  </VaporPressure>
<HeatOfVaporization name="Heat of vaporization" units="J/kmol">
  <eqno value="106" />
  <A value="6.509104E+07" />
  <B value="0.906328" />
  <C value="-0.61829" />
  <D value="0.0251605" />
  <E value="0.114898" />
  <Tmin units="K" value="216.38" />
  <Tmax units="K" value="568.7" />
  </HeatOfVaporization>
<SolidHeatCapacityCp name="Solid heat capacity" units="J/kmol/K">
  <eqno value="100" />
  <A value="-23993" />
  <B value="1947.3" />
  <C value="-8.5369" />
  <D value="0.013403" />
  <E value="0.000020934" />
  <Tmin units="K" value="20" />
  <Tmax units="K" value="216.37" />
  </SolidHeatCapacityCp>
<LiquidHeatCapacityCp name="Liquid heat capacity" units="J/kmol/K">
  <eqno value="16" />
  <A value="184080" />
  <B value="362.58" />
  <C value="6.1268" />
  <D value="0.015908" />
  <E value="-0.000010697" />
  <Tmin units="K" value="216.37" />
  <Tmax units="K" value="460" />
  </LiquidHeatCapacityCp>
<IdealGasHeatCapacityCp name="Ideal gas heat capacity" units="J/kmol/K">
  <eqno value="16" />
  <A value="123360" />
  <B value="-700.1" />
  <C value="13.486" />
  <D value="-0.00019118" />
  <E value="4.5401E-08" />
  <Tmin units="K" value="200" />
  <Tmax units="K" value="1500" />
  </IdealGasHeatCapacityCp>
<SecondVirialCoefficient name="Second virial coefficient" units="m3/kmol">
  <eqno value="104" />
  <A value="0.22234" />
  <B value="-247.06" />
  <C value="-83.099" />
  <D value="9339.9" />
  <E value="-40370" />
  <Tmin units="K" value="256" />
  <Tmax units="K" value="1990.66" />
  </SecondVirialCoefficient>
<LiquidViscosity name="Liquid viscosity" units="Pa.s">
  <eqno value="101" />
  <A value="-67.06275" />
  <B value="2937.699" />
  <C value="8.939458" />
  <D value="-0.0000146474" />
  <E value="2" />
  <Tmin units="K" value="211.15" />
  <Tmax units="K" value="568.7" />
  </LiquidViscosity>
<VaporViscosity name="Vapour viscosity" units="Pa.s">
  <eqno value="102" />
  <A value="7.2215E-09" />
  <B value="1.1166" />
  <C value="-127.08" />
  <D value="17623" />
  <Tmin units="K" value="216.38" />
  <Tmax units="K" value="1000" />
  </VaporViscosity>
<LiquidThermalConductivity name="Liquid thermal conductivity" units="W/m/K">
  <eqno value="16" />
  <A value="-0.03316" />
  <B value="17.841" />
  <C value="-1.6367" />
  <D value="-0.000047737" />
  <E value="-0.0000026501" />
  <Tmin units="K" value="216.38" />
  <Tmax units="K" value="398.83" />
  </LiquidThermalConductivity>
<VaporThermalConductivity name="Vapour thermal conductivity" units="W/m/K">
  <eqno value="102" />
  <A value="-8968.5" />
  <B value="0.84408" />
  <C value="-2.7564E+10" />
  <D value="-6.5097E+10" />
  <Tmin units="K" value="216.38" />
  <Tmax units="K" value="1000" />
  </VaporThermalConductivity>
<SurfaceTension name="Surface tension" units="N/m">
  <eqno value="16" />
  <A value="-0.010282" />
  <B value="15.557" />
  <C value="-3.0383" />
  <D value="-0.00026764" />
  <E value="-0.0000044265" />
  <Tmin units="K" value="216.38" />
  <Tmax units="K" value="568.7" />
  </SurfaceTension>
<RPPHeatCapacityCp name="Ideal gas heat capacity (RPP)" units="J/kmol/K">
  <eqno value="100" />
  <A value="89996" />
  <B value="41.431" />
  <C value="1.4759" />
  <D value="-0.0019237" />
  <E value="7.4664E-07" />
  <Tmin units="K" value="200" />
  <Tmax units="K" value="1000" />
  </RPPHeatCapacityCp>
<RelativeStaticPermittivity name="Relative static permittivity" units="_">
  <eqno value="120" />
  <A value="-1.4825" />
  <B value="-1000" />
  <C value="-6" />
  <Tmin units="K" value="274.15" />
  <Tmax units="K" value="444.15" />
  </RelativeStaticPermittivity>
<AntoineVaporPressure name="Antoine" units="Pa">
  <eqno value="10" />
  <A value="20.909" />
  <B value="3157.8" />
  <C value="-62.156" />
  <Tmin units="K" value="344.31" />
  <Tmax units="K" value="510.48" />
  </AntoineVaporPressure>
<LiquidViscosityRPS name="Liquid viscosity (RPS)" units="Pa.s">
  <eqno value="13" />
  <A value="-0.23434" />
  <B value="-0.034984" />
  <C value="0.000035201" />
  <Tmin units="K" value="211.15" />
  <Tmax units="K" value="454.96" />
  </LiquidViscosityRPS>
<COSTALDVolume name="COSTLD characteristic volume (V*)" units="m3/kmol" value="0.49042" />
<DiameterLJ name="Lennard Jones diameter" units="m" value="7.452013E-10" />
<EnergyLJ name="Lennard Jones energy" units="K" value="286.8637" />
<RacketParameter name="Rackett parameter" units="_" value="0.2567" />
<FullerVolume name="Fuller et al. diffusion volume" units="_" value="168.78" />
<MatthiasCopemanC2 name="Mathias-Copeman C2" units="_" value="0.58036" />
<Parachor name="Parachor" units="kg0.25.m3/s0.5/kmol" value="0.062" />
<SpecificGravity name="Specific gravity" units="_" value="0.705377" />
<Charge name="Charge" units="_" value="0" />
<CostaldAcentricFactor name="SRK acentric factor" units="_" value="0.3998" />
<WilsonVolume name="Wilson volume" units="m3/kmol" value="0.163455" />
<UniquacR name="UNIQUAC r" units="_" value="5.8486" />
<UniquacQ name="UNIQUAC q" units="_" value="4.936" />
<UniquacQP name="UNIQUAC q'" units="_" value="4.936" />
<ApiSrkS2 name="API-SRK s2" units="_" value="-0.000821" />
<MatthiasCopemanC3 name="Mathias-Copeman C3" units="_" value="-1.2075" />
<ChaoSeaderAcentricFactor name="Chao-Seader acentric factor" units="_" value="0.3992" />
<ChaoSeaderSolubilityParameter name="Chao-Seader solubility parameter" units="J0.5/m1.5" value="15445.57" />
<ChaoSeaderLiquidVolume name="Chao-Seader liquid volume" units="m3/kmol" value="0.163455" />
<UnifacVLE name="UNIFAC">
  <group id="1" value="2" />
  <group id="2" value="6" />
  </UnifacVLE>
<UnifacLLE name="UNIFAC-LLE">
  <group id="1" value="2" />
  <group id="2" value="6" />
  </UnifacLLE>
<Asog name="ASOG">
  <group id="1" value="2" />
  <group id="2" value="6" />
  </Asog>
<GCmethod name="PPR78">
  <group id="1" value="2" />
  <group id="2" value="6" />
  </GCmethod>
<Umr name="UMR">
  <group id="1" value="2" />
  <group id="2" value="6" />
  </Umr>
<ModifiedUnifac name="Modified UNIFAC">
  <group id="1" value="2" />
  <group id="2" value="6" />
  </ModifiedUnifac>
<CAS name="CAS number" value="111-65-9" />
<Smiles name="SMILES" value="CCCCCCCC" />
</compound>

