<compound>
<LibraryIndex name="Index" value="70" />
<CompoundID name="Name" value="n-octadecane" />
<StructureFormula name="Structure" value="CH3(CH2)16CH3" />
<Family name="Family" value="1" />
<CriticalTemperature name="Critical temperature" units="K" value="747" />
<CriticalPressure name="Critical pressure" units="Pa" value="1290000" />
<CriticalVolume name="Critical volume" units="m3/kmol" value="1.189" />
<CriticalCompressibility name="Critical compressibility factor" units="_" value="0.247" />
<NormalBoilingPointTemperature name="Normal boiling point" units="K" value="588.3" />
<NormalMeltingPointTemperature name="Melting point" units="K" value="301.33" />
<TriplePointTemperature name="Triple point temperature" units="K" value="301.33" />
<TriplePointPressure name="Triple point pressure" units="Pa" value="0.0339091" />
<MolecularWeight name="Molecular weight" units="kg/kmol" value="254.4943" />
<LiquidVolumeAtNormalBoilingPoint name="Liquid molar volume at normal boiling point" units="m3/kmol" value="0.32666" />
<AcentricityFactor name="Acentric factor" units="_" value="0.808" />
<RadiusOfGyration name="Radius of gyration" units="m" value="7.655E-10" />
<SolubilityParameter name="Solubility parameter" units="J0.5/m1.5" value="16100" />
<DipoleMoment name="Dipole moment" units="Coulomb.m" value="0" />
<VanDerWaalsVolume name="Van der Waals volume" units="m3/kmol" value="0.191" />
<VanDerWaalsArea name="Van der Waals area" units="m2/kmol" value="2.584E+09" />
<HeatOfFormation name="IG heat of formation" units="J/kmol" value="-4.1457E+08" />
<GibbsEnergyOfFormation name="IG Gibbs energy of formation" units="J/kmol" value="9.921E+07" />
<AbsEntropy name="IG absolute entropy" units="J/kmol/K" value="859450" />
<HeatOfFusionAtMeltingPoint name="Heat of fusion at melting point" units="J/kmol" value="6.1986E+07" />
<MatthiasCopemanC1 name="Mathias-Copeman C1" units="_" value="1.6378" />
<HeatOfCombustion name="Standard net heat of combustion LHV" units="J/kmol" value="-1.11726E+10" />
<SolidDensity name="Solid density" units="kmol/m3">
  <eqno value="2" />
  <A value="5.0277" />
  <B value="-0.0050559" />
  <C value="0" />
  <D value="0" />
  <E value="0" />
  <Tmin units="K" value="273.15" />
  <Tmax units="K" value="301.32" />
  </SolidDensity>
<LiquidDensity name="Liquid density" units="kmol/m3">
  <eqno value="105" />
  <A value="0.21099" />
  <B value="0.23901" />
  <C value="748.16" />
  <D value="0.28153" />
  <Tmin units="K" value="273.15" />
  <Tmax units="K" value="748.15" />
  </LiquidDensity>
<VaporPressure name="Vapour pressure" units="Pa">
  <eqno value="101" />
  <A value="156.4726" />
  <B value="-16120.27" />
  <C value="-18.72498" />
  <D value="5.38655E-06" />
  <E value="2" />
  <Tmin units="K" value="301.31" />
  <Tmax units="K" value="750.15" />
  </VaporPressure>
<HeatOfVaporization name="Heat of vaporization" units="J/kmol">
  <eqno value="106" />
  <A value="1.214E+08" />
  <B value="0.36333" />
  <C value="1.283" />
  <D value="-2.0514" />
  <E value="0.85175" />
  <Tmin units="K" value="298.15" />
  <Tmax units="K" value="723.54" />
  </HeatOfVaporization>
<SolidHeatCapacityCp name="Solid heat capacity" units="J/kmol/K">
  <eqno value="100" />
  <A value="-62135" />
  <B value="4107.1" />
  <C value="-20.184" />
  <D value="0.052076" />
  <E value="-0.000032879" />
  <Tmin units="K" value="20.8" />
  <Tmax units="K" value="298.15" />
  </SolidHeatCapacityCp>
<LiquidHeatCapacityCp name="Liquid heat capacity" units="J/kmol/K">
  <eqno value="16" />
  <A value="332820" />
  <B value="-15.176" />
  <C value="11.369" />
  <D value="0.0039066" />
  <E value="-0.0000015738" />
  <Tmin units="K" value="300" />
  <Tmax units="K" value="589.86" />
  </LiquidHeatCapacityCp>
<IdealGasHeatCapacityCp name="Ideal gas heat capacity" units="J/kmol/K">
  <eqno value="16" />
  <A value="258960" />
  <B value="-641.43" />
  <C value="14.136" />
  <D value="-0.000068602" />
  <E value="1.814E-08" />
  <Tmin units="K" value="200" />
  <Tmax units="K" value="1500" />
  </IdealGasHeatCapacityCp>
<SecondVirialCoefficient name="Second virial coefficient" units="m3/kmol">
  <eqno value="104" />
  <A value="0.37194" />
  <B value="-125.23" />
  <C value="-684.43" />
  <D value="-279030" />
  <E value="-217610" />
  <Tmin units="K" value="372.63" />
  <Tmax units="K" value="1712.63" />
  </SecondVirialCoefficient>
<LiquidViscosity name="Liquid viscosity" units="Pa.s">
  <eqno value="101" />
  <A value="-83.956" />
  <B value="4978.7" />
  <C value="10.99" />
  <D value="-0.0000089834" />
  <E value="2" />
  <Tmin units="K" value="301.15" />
  <Tmax units="K" value="613.15" />
  </LiquidViscosity>
<VaporViscosity name="Vapour viscosity" units="Pa.s">
  <eqno value="102" />
  <A value="3.2955E-07" />
  <B value="0.58255" />
  <C value="343.75" />
  <D value="67974" />
  <Tmin units="K" value="301.31" />
  <Tmax units="K" value="1000" />
  </VaporViscosity>
<LiquidThermalConductivity name="Liquid thermal conductivity" units="W/m/K">
  <eqno value="16" />
  <A value="-0.046627" />
  <B value="-130.56" />
  <C value="-0.64842" />
  <D value="-0.0017182" />
  <E value="-4.6995E-07" />
  <Tmin units="K" value="301.15" />
  <Tmax units="K" value="589.86" />
  </LiquidThermalConductivity>
<VaporThermalConductivity name="Vapour thermal conductivity" units="W/m/K">
  <eqno value="102" />
  <A value="-198.99" />
  <B value="1.1011" />
  <C value="-5.9685E+09" />
  <D value="5.2419E+11" />
  <Tmin units="K" value="301.33" />
  <Tmax units="K" value="1000" />
  </VaporThermalConductivity>
<SurfaceTension name="Surface tension" units="N/m">
  <eqno value="16" />
  <A value="-0.0056568" />
  <B value="50.95" />
  <C value="-3.3461" />
  <D value="0.00054721" />
  <E value="-0.0000042845" />
  <Tmin units="K" value="293.15" />
  <Tmax units="K" value="723.54" />
  </SurfaceTension>
<RPPHeatCapacityCp name="Ideal gas heat capacity (RPP)" units="J/kmol/K">
  <eqno value="100" />
  <A value="208940" />
  <B value="-79.844" />
  <C value="3.9922" />
  <D value="-0.0053425" />
  <E value="0.0000021569" />
  <Tmin units="K" value="200" />
  <Tmax units="K" value="1000" />
  </RPPHeatCapacityCp>
<AntoineVaporPressure name="Antoine" units="Pa">
  <eqno value="10" />
  <A value="21.043" />
  <B value="4346" />
  <C value="-132.5" />
  <Tmin units="K" value="450" />
  <Tmax units="K" value="653.17" />
  </AntoineVaporPressure>
<LiquidViscosityRPS name="Liquid viscosity (RPS)" units="Pa.s">
  <eqno value="12" />
  <A value="-3.0265" />
  <B value="-0.0096674" />
  <Tmin units="K" value="301.15" />
  <Tmax units="K" value="613.15" />
  </LiquidViscosityRPS>
<COSTALDVolume name="COSTLD characteristic volume (V*)" units="m3/kmol" value="1.234017" />
<DiameterLJ name="Lennard Jones diameter" units="m" value="1.058609E-09" />
<EnergyLJ name="Lennard Jones energy" units="K" value="317.6455" />
<RacketParameter name="Rackett parameter" units="_" value="0.247" />
<FullerVolume name="Fuller et al. diffusion volume" units="_" value="373.98" />
<MatthiasCopemanC2 name="Mathias-Copeman C2" units="_" value="0" />
<Parachor name="Parachor" units="kg0.25.m3/s0.5/kmol" value="0.13583" />
<SpecificGravity name="Specific gravity" units="_" value="0.78311" />
<Charge name="Charge" units="_" value="0" />
<CostaldAcentricFactor name="SRK acentric factor" units="_" value="0.808" />
<WilsonVolume name="Wilson volume" units="m3/kmol" value="0.32666" />
<UniquacR name="UNIQUAC r" units="_" value="12.5926" />
<UniquacQ name="UNIQUAC q" units="_" value="10.336" />
<ApiSrkS2 name="API-SRK s2" units="_" value="-0.003612" />
<MatthiasCopemanC3 name="Mathias-Copeman C3" units="_" value="0" />
<ChaoSeaderAcentricFactor name="Chao-Seader acentric factor" units="_" value="0.808" />
<ChaoSeaderSolubilityParameter name="Chao-Seader solubility parameter" units="J0.5/m1.5" value="16100" />
<ChaoSeaderLiquidVolume name="Chao-Seader liquid volume" units="m3/kmol" value="0.32666" />
<UnifacVLE name="UNIFAC">
  <group id="1" value="2" />
  <group id="2" value="16" />
  </UnifacVLE>
<UnifacLLE name="UNIFAC-LLE">
  <group id="1" value="2" />
  <group id="2" value="16" />
  </UnifacLLE>
<Asog name="ASOG">
  <group id="1" value="2" />
  <group id="2" value="16" />
  </Asog>
<GCmethod name="PPR78">
  <group id="1" value="2" />
  <group id="2" value="16" />
  </GCmethod>
<Umr name="UMR">
  <group id="1" value="2" />
  <group id="2" value="16" />
  </Umr>
<ModifiedUnifac name="Modified UNIFAC">
  <group id="1" value="2" />
  <group id="2" value="16" />
  </ModifiedUnifac>
<CAS name="CAS number" value="593-45-3" />
<Smiles name="SMILES" value="CCCCCCCCCCCCCCCCCC" />
</compound>

