<compound>
<LibraryIndex name="Index" value="67" />
<CompoundID name="Name" value="n-pentadecane" />
<StructureFormula name="Structure" value="CH3(CH2)13CH3" />
<Family name="Family" value="1" />
<CriticalTemperature name="Critical temperature" units="K" value="708" />
<CriticalPressure name="Critical pressure" units="Pa" value="1480000" />
<CriticalVolume name="Critical volume" units="m3/kmol" value="0.966" />
<CriticalCompressibility name="Critical compressibility factor" units="_" value="0.243" />
<NormalBoilingPointTemperature name="Normal boiling point" units="K" value="543.83" />
<NormalMeltingPointTemperature name="Melting point" units="K" value="283.072" />
<TriplePointTemperature name="Triple point temperature" units="K" value="283.072" />
<TriplePointPressure name="Triple point pressure" units="Pa" value="0.128872" />
<MolecularWeight name="Molecular weight" units="kg/kmol" value="212.4146" />
<LiquidVolumeAtNormalBoilingPoint name="Liquid molar volume at normal boiling point" units="m3/kmol" value="0.27771" />
<AcentricityFactor name="Acentric factor" units="_" value="0.685" />
<RadiusOfGyration name="Radius of gyration" units="m" value="6.729E-10" />
<SolubilityParameter name="Solubility parameter" units="J0.5/m1.5" value="16210" />
<DipoleMoment name="Dipole moment" units="Coulomb.m" value="0" />
<VanDerWaalsVolume name="Van der Waals volume" units="m3/kmol" value="0.1603" />
<VanDerWaalsArea name="Van der Waals area" units="m2/kmol" value="2.179E+09" />
<HeatOfFormation name="IG heat of formation" units="J/kmol" value="-3.5311E+08" />
<GibbsEnergyOfFormation name="IG Gibbs energy of formation" units="J/kmol" value="7.426E+07" />
<AbsEntropy name="IG absolute entropy" units="J/kmol/K" value="741810" />
<HeatOfFusionAtMeltingPoint name="Heat of fusion at melting point" units="J/kmol" value="3.459E+07" />
<MatthiasCopemanC1 name="Mathias-Copeman C1" units="_" value="1.48184" />
<HeatOfCombustion name="Standard net heat of combustion LHV" units="J/kmol" value="-9.34237E+09" />
<SolidDensity name="Solid density" units="kmol/m3">
  <eqno value="2" />
  <A value="4.3" />
  <B value="8.5322E-17" />
  <Tmin units="K" value="283.07" />
  <Tmax units="K" value="292.57" />
  </SolidDensity>
<LiquidDensity name="Liquid density" units="kmol/m3">
  <eqno value="105" />
  <A value="0.26611" />
  <B value="0.24483" />
  <C value="708" />
  <D value="0.29579" />
  <Tmin units="K" value="283.07" />
  <Tmax units="K" value="685.64" />
  </LiquidDensity>
<VaporPressure name="Vapour pressure" units="Pa">
  <eqno value="101" />
  <A value="105.7905" />
  <B value="-12176.19" />
  <C value="-11.51031" />
  <D value="2.157424E-06" />
  <E value="2" />
  <Tmin units="K" value="283.07" />
  <Tmax units="K" value="708" />
  </VaporPressure>
<HeatOfVaporization name="Heat of vaporization" units="J/kmol">
  <eqno value="106" />
  <A value="1.334182E+08" />
  <B value="1.382258" />
  <C value="-0.345375" />
  <D value="-1.508041" />
  <E value="0.995233" />
  <Tmin units="K" value="283.07" />
  <Tmax units="K" value="685.64" />
  </HeatOfVaporization>
<SolidHeatCapacityCp name="Solid heat capacity" units="J/kmol/K">
  <eqno value="100" />
  <A value="-31815" />
  <B value="2469.2" />
  <C value="-1.2562" />
  <D value="-0.049055" />
  <E value="0.0001557" />
  <Tmin units="K" value="20" />
  <Tmax units="K" value="270.9" />
  </SolidHeatCapacityCp>
<LiquidHeatCapacityCp name="Liquid heat capacity" units="J/kmol/K">
  <eqno value="16" />
  <A value="44888" />
  <B value="73.977" />
  <C value="11.979" />
  <D value="0.0027483" />
  <E value="-9.4622E-07" />
  <Tmin units="K" value="283.07" />
  <Tmax units="K" value="543.84" />
  </LiquidHeatCapacityCp>
<IdealGasHeatCapacityCp name="Ideal gas heat capacity" units="J/kmol/K">
  <eqno value="16" />
  <A value="218790" />
  <B value="-655.87" />
  <C value="14.013" />
  <D value="-0.00013811" />
  <E value="4.3573E-08" />
  <Tmin units="K" value="200" />
  <Tmax units="K" value="1500" />
  </IdealGasHeatCapacityCp>
<SecondVirialCoefficient name="Second virial coefficient" units="m3/kmol">
  <eqno value="104" />
  <A value="0.37154" />
  <B value="-266.84" />
  <C value="-432.43" />
  <D value="-95870" />
  <E value="-140270" />
  <Tmin units="K" value="353" />
  <Tmax units="K" value="1938" />
  </SecondVirialCoefficient>
<LiquidViscosity name="Liquid viscosity" units="Pa.s">
  <eqno value="101" />
  <A value="-91.37005" />
  <B value="4965.801" />
  <C value="12.24551" />
  <D value="-0.0000115231" />
  <E value="2" />
  <Tmin units="K" value="273.15" />
  <Tmax units="K" value="708" />
  </LiquidViscosity>
<VaporViscosity name="Vapour viscosity" units="Pa.s">
  <eqno value="102" />
  <A value="3.2252E-08" />
  <B value="0.90575" />
  <C value="168.22" />
  <D value="3233.4" />
  <Tmin units="K" value="273.15" />
  <Tmax units="K" value="1000" />
  </VaporViscosity>
<LiquidThermalConductivity name="Liquid thermal conductivity" units="W/m/K">
  <eqno value="16" />
  <A value="0.010742" />
  <B value="-152.75" />
  <C value="-0.43594" />
  <D value="-0.0040245" />
  <E value="0.0000012373" />
  <Tmin units="K" value="283.07" />
  <Tmax units="K" value="543.84" />
  </LiquidThermalConductivity>
<VaporThermalConductivity name="Vapour thermal conductivity" units="W/m/K">
  <eqno value="102" />
  <A value="0.0000047787" />
  <B value="1.4851" />
  <C value="642.9" />
  <D value="182.7" />
  <Tmin units="K" value="283.072" />
  <Tmax units="K" value="1000" />
  </VaporThermalConductivity>
<SurfaceTension name="Surface tension" units="N/m">
  <eqno value="16" />
  <A value="-0.070366" />
  <B value="-47.05" />
  <C value="-1.6737" />
  <D value="-0.0019561" />
  <E value="9.2369E-07" />
  <Tmin units="K" value="283.07" />
  <Tmax units="K" value="685.64" />
  </SurfaceTension>
<RPPHeatCapacityCp name="Ideal gas heat capacity (RPP)" units="J/kmol/K">
  <eqno value="100" />
  <A value="176100" />
  <B value="-70.041" />
  <C value="3.3232" />
  <D value="-0.0044308" />
  <E value="0.0000017861" />
  <Tmin units="K" value="200" />
  <Tmax units="K" value="1000" />
  </RPPHeatCapacityCp>
<AntoineVaporPressure name="Antoine" units="Pa">
  <eqno value="10" />
  <A value="21.805" />
  <B value="4671.3" />
  <C value="-88.708" />
  <Tmin units="K" value="434.49" />
  <Tmax units="K" value="633.1" />
  </AntoineVaporPressure>
<LiquidViscosityRPS name="Liquid viscosity (RPS)" units="Pa.s">
  <eqno value="13" />
  <A value="1.8636" />
  <B value="-0.035377" />
  <C value="0.000030301" />
  <Tmin units="K" value="273.15" />
  <Tmax units="K" value="543.84" />
  </LiquidViscosityRPS>
<COSTALDVolume name="COSTLD characteristic volume (V*)" units="m3/kmol" value="0.97724" />
<DiameterLJ name="Lennard Jones diameter" units="m" value="1.007341E-09" />
<EnergyLJ name="Lennard Jones energy" units="K" value="283.8762" />
<RacketParameter name="Rackett parameter" units="_" value="0.245" />
<FullerVolume name="Fuller et al. diffusion volume" units="_" value="312.42" />
<MatthiasCopemanC2 name="Mathias-Copeman C2" units="_" value="0" />
<Parachor name="Parachor" units="kg0.25.m3/s0.5/kmol" value="0.11" />
<SpecificGravity name="Specific gravity" units="_" value="0.770405" />
<Charge name="Charge" units="_" value="0" />
<CostaldAcentricFactor name="SRK acentric factor" units="_" value="0.72539" />
<WilsonVolume name="Wilson volume" units="m3/kmol" value="0.277673" />
<UniquacR name="UNIQUAC r" units="_" value="10.5694" />
<UniquacQ name="UNIQUAC q" units="_" value="8.716001" />
<ApiSrkS2 name="API-SRK s2" units="_" value="-0.033625" />
<MatthiasCopemanC3 name="Mathias-Copeman C3" units="_" value="0" />
<ChaoSeaderAcentricFactor name="Chao-Seader acentric factor" units="_" value="0.6743" />
<ChaoSeaderSolubilityParameter name="Chao-Seader solubility parameter" units="J0.5/m1.5" value="16282.18" />
<ChaoSeaderLiquidVolume name="Chao-Seader liquid volume" units="m3/kmol" value="0.2778" />
<UnifacVLE name="UNIFAC">
  <group id="1" value="2" />
  <group id="2" value="13" />
  </UnifacVLE>
<UnifacLLE name="UNIFAC-LLE">
  <group id="1" value="2" />
  <group id="2" value="13" />
  </UnifacLLE>
<Asog name="ASOG">
  <group id="1" value="2" />
  <group id="2" value="13" />
  </Asog>
<GCmethod name="PPR78">
  <group id="1" value="2" />
  <group id="2" value="13" />
  </GCmethod>
<Umr name="UMR">
  <group id="1" value="2" />
  <group id="2" value="13" />
  </Umr>
<ModifiedUnifac name="Modified UNIFAC">
  <group id="1" value="2" />
  <group id="2" value="13" />
  </ModifiedUnifac>
<CAS name="CAS number" value="629-62-9" />
<Smiles name="SMILES" value="CCCCCCCCCCCCCCC" />
</compound>

