<compound>
<LibraryIndex name="Index" value="66" />
<CompoundID name="Name" value="n-tetradecane" />
<StructureFormula name="Structure" value="CH3(CH2)12CH3" />
<Family name="Family" value="1" />
<CriticalTemperature name="Critical temperature" units="K" value="693" />
<CriticalPressure name="Critical pressure" units="Pa" value="1570000" />
<CriticalVolume name="Critical volume" units="m3/kmol" value="0.894" />
<CriticalCompressibility name="Critical compressibility factor" units="_" value="0.244" />
<NormalBoilingPointTemperature name="Normal boiling point" units="K" value="526.76" />
<NormalMeltingPointTemperature name="Melting point" units="K" value="279.01" />
<TriplePointTemperature name="Triple point temperature" units="K" value="279.01" />
<TriplePointPressure name="Triple point pressure" units="Pa" value="0.252685" />
<MolecularWeight name="Molecular weight" units="kg/kmol" value="198.388" />
<LiquidVolumeAtNormalBoilingPoint name="Liquid molar volume at normal boiling point" units="m3/kmol" value="0.26132" />
<AcentricityFactor name="Acentric factor" units="_" value="0.644" />
<RadiusOfGyration name="Radius of gyration" units="m" value="6.427E-10" />
<SolubilityParameter name="Solubility parameter" units="J0.5/m1.5" value="16140" />
<DipoleMoment name="Dipole moment" units="Coulomb.m" value="0" />
<VanDerWaalsVolume name="Van der Waals volume" units="m3/kmol" value="0.1501" />
<VanDerWaalsArea name="Van der Waals area" units="m2/kmol" value="2.044E+09" />
<HeatOfFormation name="IG heat of formation" units="J/kmol" value="-3.3244E+08" />
<GibbsEnergyOfFormation name="IG Gibbs energy of formation" units="J/kmol" value="6.599E+07" />
<AbsEntropy name="IG absolute entropy" units="J/kmol/K" value="702590" />
<HeatOfFusionAtMeltingPoint name="Heat of fusion at melting point" units="J/kmol" value="4.507E+07" />
<MatthiasCopemanC1 name="Mathias-Copeman C1" units="_" value="1.4596" />
<HeatOfCombustion name="Standard net heat of combustion LHV" units="J/kmol" value="-8.73282E+09" />
<SolidDensity name="Solid density" units="kmol/m3">
  <eqno value="2" />
  <A value="4.6071" />
  <B value="-1.9678E-17" />
  <Tmin units="K" value="0" />
  <Tmax units="K" value="9.5" />
  </SolidDensity>
<LiquidDensity name="Liquid density" units="kmol/m3">
  <eqno value="105" />
  <A value="0.26297" />
  <B value="0.23695" />
  <C value="693" />
  <D value="0.26861" />
  <Tmin units="K" value="279.01" />
  <Tmax units="K" value="693" />
  </LiquidDensity>
<VaporPressure name="Vapour pressure" units="Pa">
  <eqno value="101" />
  <A value="141.7696" />
  <B value="-13265.67" />
  <C value="-17.07041" />
  <D value="6.905252E-06" />
  <E value="2" />
  <Tmin units="K" value="279.01" />
  <Tmax units="K" value="693" />
  </VaporPressure>
<HeatOfVaporization name="Heat of vaporization" units="J/kmol">
  <eqno value="106" />
  <A value="1.216371E+08" />
  <B value="1.28014" />
  <C value="-0.352636" />
  <D value="-1.241735" />
  <E value="0.826459" />
  <Tmin units="K" value="279.01" />
  <Tmax units="K" value="693" />
  </HeatOfVaporization>
<SolidHeatCapacityCp name="Solid heat capacity" units="J/kmol/K">
  <eqno value="100" />
  <A value="-49970" />
  <B value="3309.6" />
  <C value="-15.927" />
  <D value="0.037566" />
  <E value="-0.000014829" />
  <Tmin units="K" value="29.98" />
  <Tmax units="K" value="279.02" />
  </SolidHeatCapacityCp>
<LiquidHeatCapacityCp name="Liquid heat capacity" units="J/kmol/K">
  <eqno value="16" />
  <A value="84257" />
  <B value="110.32" />
  <C value="11.507" />
  <D value="0.0033723" />
  <E value="-0.0000011739" />
  <Tmin units="K" value="279.01" />
  <Tmax units="K" value="526.73" />
  </LiquidHeatCapacityCp>
<IdealGasHeatCapacityCp name="Ideal gas heat capacity" units="J/kmol/K">
  <eqno value="16" />
  <A value="204940" />
  <B value="-657.01" />
  <C value="13.943" />
  <D value="-0.00013248" />
  <E value="4.0902E-08" />
  <Tmin units="K" value="200" />
  <Tmax units="K" value="1500" />
  </IdealGasHeatCapacityCp>
<SecondVirialCoefficient name="Second virial coefficient" units="m3/kmol">
  <eqno value="104" />
  <A value="0.3799" />
  <B value="-326.59" />
  <C value="-350.35" />
  <D value="-74172" />
  <E value="-110230" />
  <Tmin units="K" value="346.5" />
  <Tmax units="K" value="1913" />
  </SecondVirialCoefficient>
<LiquidViscosity name="Liquid viscosity" units="Pa.s">
  <eqno value="101" />
  <A value="-84.61448" />
  <B value="4567.43" />
  <C value="11.25434" />
  <D value="-0.0000111579" />
  <E value="2" />
  <Tmin units="K" value="277.65" />
  <Tmax units="K" value="693" />
  </LiquidViscosity>
<VaporViscosity name="Vapour viscosity" units="Pa.s">
  <eqno value="102" />
  <A value="3.4874E-09" />
  <B value="1.2039" />
  <C value="-69.467" />
  <D value="11809" />
  <Tmin units="K" value="273.15" />
  <Tmax units="K" value="1000" />
  </VaporViscosity>
<LiquidThermalConductivity name="Liquid thermal conductivity" units="W/m/K">
  <eqno value="16" />
  <A value="0.039135" />
  <B value="-208.63" />
  <C value="-0.066493" />
  <D value="-0.005844" />
  <E value="0.0000021711" />
  <Tmin units="K" value="279.01" />
  <Tmax units="K" value="526.73" />
  </LiquidThermalConductivity>
<VaporThermalConductivity name="Vapour thermal conductivity" units="W/m/K">
  <eqno value="102" />
  <A value="-122.4" />
  <B value="0.86814" />
  <C value="-5.5021E+08" />
  <D value="-2.1347E+10" />
  <Tmin units="K" value="279.01" />
  <Tmax units="K" value="1000" />
  </VaporThermalConductivity>
<SurfaceTension name="Surface tension" units="N/m">
  <eqno value="16" />
  <A value="-0.0044248" />
  <B value="172.78" />
  <C value="-4.4693" />
  <D value="0.0037172" />
  <E value="-0.0000079542" />
  <Tmin units="K" value="279.01" />
  <Tmax units="K" value="693" />
  </SurfaceTension>
<RPPHeatCapacityCp name="Ideal gas heat capacity (RPP)" units="J/kmol/K">
  <eqno value="100" />
  <A value="152780" />
  <B value="54.751" />
  <C value="2.6862" />
  <D value="-0.0035472" />
  <E value="0.0000013794" />
  <Tmin units="K" value="200" />
  <Tmax units="K" value="1000" />
  </RPPHeatCapacityCp>
<AntoineVaporPressure name="Antoine" units="Pa">
  <eqno value="10" />
  <A value="21.35" />
  <B value="4247.1" />
  <C value="-94.486" />
  <Tmin units="K" value="419.9" />
  <Tmax units="K" value="605.84" />
  </AntoineVaporPressure>
<LiquidViscosityRPS name="Liquid viscosity (RPS)" units="Pa.s">
  <eqno value="13" />
  <A value="0.95817" />
  <B value="-0.030978" />
  <C value="0.000024066" />
  <Tmin units="K" value="277.65" />
  <Tmax units="K" value="554.4" />
  </LiquidViscosityRPS>
<COSTALDVolume name="COSTLD characteristic volume (V*)" units="m3/kmol" value="0.90219" />
<DiameterLJ name="Lennard Jones diameter" units="m" value="9.768391E-10" />
<EnergyLJ name="Lennard Jones energy" units="K" value="282.0005" />
<RacketParameter name="Rackett parameter" units="_" value="0.234049" />
<FullerVolume name="Fuller et al. diffusion volume" units="_" value="291.9" />
<MatthiasCopemanC2 name="Mathias-Copeman C2" units="_" value="-0.50737" />
<Parachor name="Parachor" units="kg0.25.m3/s0.5/kmol" value="0.103" />
<SpecificGravity name="Specific gravity" units="_" value="0.762913" />
<Charge name="Charge" units="_" value="0" />
<CostaldAcentricFactor name="SRK acentric factor" units="_" value="0.68207" />
<WilsonVolume name="Wilson volume" units="m3/kmol" value="0.261791" />
<UniquacR name="UNIQUAC r" units="_" value="9.895" />
<UniquacQ name="UNIQUAC q" units="_" value="8.176001" />
<ApiSrkS2 name="API-SRK s2" units="_" value="0.010085" />
<MatthiasCopemanC3 name="Mathias-Copeman C3" units="_" value="1.4459" />
<ChaoSeaderAcentricFactor name="Chao-Seader acentric factor" units="_" value="0.6399" />
<ChaoSeaderSolubilityParameter name="Chao-Seader solubility parameter" units="J0.5/m1.5" value="16200.36" />
<ChaoSeaderLiquidVolume name="Chao-Seader liquid volume" units="m3/kmol" value="0.2613" />
<UnifacVLE name="UNIFAC">
  <group id="1" value="2" />
  <group id="2" value="12" />
  </UnifacVLE>
<UnifacLLE name="UNIFAC-LLE">
  <group id="1" value="2" />
  <group id="2" value="12" />
  </UnifacLLE>
<Asog name="ASOG">
  <group id="1" value="2" />
  <group id="2" value="12" />
  </Asog>
<GCmethod name="PPR78">
  <group id="1" value="2" />
  <group id="2" value="12" />
  </GCmethod>
<Umr name="UMR">
  <group id="1" value="2" />
  <group id="2" value="12" />
  </Umr>
<ModifiedUnifac name="Modified UNIFAC">
  <group id="1" value="2" />
  <group id="2" value="12" />
  </ModifiedUnifac>
<CAS name="CAS number" value="629-59-4" />
<Smiles name="SMILES" value="CCCCCCCCCCCCCC" />
</compound>

