<compound>
<LibraryIndex name="Index" value="76" />
<CompoundID name="Name" value="n-tricosane" />
<StructureFormula name="Structure" value="CH3(CH2)21CH3" />
<Family name="Family" value="1" />
<CriticalTemperature name="Critical temperature" units="K" value="796" />
<CriticalPressure name="Critical pressure" units="Pa" value="1020000" />
<CriticalVolume name="Critical volume" units="m3/kmol" value="1.35" />
<CriticalCompressibility name="Critical compressibility factor" units="_" value="0.208059" />
<NormalBoilingPointTemperature name="Normal boiling point" units="K" value="653.15" />
<NormalMeltingPointTemperature name="Melting point" units="K" value="320.95" />
<TriplePointTemperature name="Triple point temperature" units="K" value="320.65" />
<TriplePointPressure name="Triple point pressure" units="Pa" value="0.00186855" />
<MolecularWeight name="Molecular weight" units="kg/kmol" value="324.6272" />
<LiquidVolumeAtNormalBoilingPoint name="Liquid molar volume at normal boiling point" units="m3/kmol" value="0.4074" />
<AcentricityFactor name="Acentric factor" units="_" value="1.02617" />
<RadiusOfGyration name="Radius of gyration" units="m" value="9.065E-10" />
<SolubilityParameter name="Solubility parameter" units="J0.5/m1.5" value="15800" />
<DipoleMoment name="Dipole moment" units="Coulomb.m" value="0" />
<VanDerWaalsVolume name="Van der Waals volume" units="m3/kmol" value="0.2422" />
<VanDerWaalsArea name="Van der Waals area" units="m2/kmol" value="3.259E+09" />
<HeatOfFormation name="IG heat of formation" units="J/kmol" value="-5.192E+08" />
<GibbsEnergyOfFormation name="IG Gibbs energy of formation" units="J/kmol" value="1.39E+08" />
<AbsEntropy name="IG absolute entropy" units="J/kmol/K" value="1064000" />
<HeatOfFusionAtMeltingPoint name="Heat of fusion at melting point" units="J/kmol" value="5.3974E+07" />
<MatthiasCopemanC1 name="Mathias-Copeman C1" units="_" value="1.8" />
<HeatOfCombustion name="Standard net heat of combustion LHV" units="J/kmol" value="-1.417E+10" />
<SolidDensity name="Solid density" units="kmol/m3">
  <eqno value="100" />
  <A value="3.0671" />
  <B value="-0.0011957" />
  <C value="0" />
  <D value="0" />
  <E value="0" />
  <Tmin units="K" value="128.26" />
  <Tmax units="K" value="320.65" />
  </SolidDensity>
<LiquidDensity name="Liquid density" units="kmol/m3">
  <eqno value="105" />
  <A value="0.048866" />
  <B value="0.12922" />
  <C value="818.25" />
  <D value="0.20531" />
  <Tmin units="K" value="273.15" />
  <Tmax units="K" value="770.98" />
  </LiquidDensity>
<VaporPressure name="Vapour pressure" units="Pa">
  <eqno value="101" />
  <A value="-22.08031" />
  <B value="-9534.111" />
  <C value="8.274049" />
  <D value="-0.0000125255" />
  <E value="2" />
  <Tmin units="K" value="320.65" />
  <Tmax units="K" value="796" />
  </VaporPressure>
<HeatOfVaporization name="Heat of vaporization" units="J/kmol">
  <eqno value="106" />
  <A value="1.6434E+08" />
  <B value="1.0068" />
  <C value="-0.55169" />
  <D value="0.31454" />
  <E value="-0.3244" />
  <Tmin units="K" value="320.65" />
  <Tmax units="K" value="796" />
  </HeatOfVaporization>
<SolidHeatCapacityCp name="Solid heat capacity" units="J/kmol/K">
  <eqno value="102" />
  <A value="6630" />
  <B value="0.79267" />
  <C value="0" />
  <D value="0" />
  <Tmin units="K" value="50" />
  <Tmax units="K" value="320.65" />
  </SolidHeatCapacityCp>
<LiquidHeatCapacityCp name="Liquid heat capacity" units="J/kmol/K">
  <eqno value="16" />
  <A value="-58655" />
  <B value="-99.845" />
  <C value="13.754" />
  <D value="0.00030768" />
  <E value="3.7705E-07" />
  <Tmin units="K" value="320.65" />
  <Tmax units="K" value="750" />
  </LiquidHeatCapacityCp>
<IdealGasHeatCapacityCp name="Ideal gas heat capacity" units="J/kmol/K">
  <eqno value="16" />
  <A value="304710" />
  <B value="-567.01" />
  <C value="14.201" />
  <D value="0.00012862" />
  <E value="-4.8999E-08" />
  <Tmin units="K" value="273" />
  <Tmax units="K" value="1500" />
  </IdealGasHeatCapacityCp>
<SecondVirialCoefficient name="Second virial coefficient" units="m3/kmol">
  <eqno value="104" />
  <A value="0.80211" />
  <B value="-472.21" />
  <C value="-1000" />
  <D value="-2157000" />
  <E value="4225100" />
  <Tmin units="K" value="398" />
  <Tmax units="K" value="1500" />
  </SecondVirialCoefficient>
<LiquidViscosity name="Liquid viscosity" units="Pa.s">
  <eqno value="101" />
  <A value="-8.8394" />
  <B value="1949.8" />
  <C value="-0.47088" />
  <D value="0.0000010446" />
  <E value="2" />
  <Tmin units="K" value="320.65" />
  <Tmax units="K" value="716.4" />
  </LiquidViscosity>
<VaporViscosity name="Vapour viscosity" units="Pa.s">
  <eqno value="102" />
  <A value="2.8518E-07" />
  <B value="0.61933" />
  <C value="704.01" />
  <D value="6598.3" />
  <Tmin units="K" value="320.65" />
  <Tmax units="K" value="1000" />
  </VaporViscosity>
<LiquidThermalConductivity name="Liquid thermal conductivity" units="W/m/K">
  <eqno value="16" />
  <A value="-0.18218" />
  <B value="0.19147" />
  <C value="-0.94906" />
  <D value="-0.00035642" />
  <E value="-3.5025E-07" />
  <Tmin units="K" value="320.65" />
  <Tmax units="K" value="653.35" />
  </LiquidThermalConductivity>
<VaporThermalConductivity name="Vapour thermal conductivity" units="W/m/K">
  <eqno value="102" />
  <A value="-232.83" />
  <B value="1.0566" />
  <C value="-5.2747E+09" />
  <D value="-9.8604E+10" />
  <Tmin units="K" value="320.65" />
  <Tmax units="K" value="1000" />
  </VaporThermalConductivity>
<SurfaceTension name="Surface tension" units="N/m">
  <eqno value="16" />
  <A value="-0.03252" />
  <B value="-86.948" />
  <C value="-1.7797" />
  <D value="-0.0026525" />
  <E value="9.2007E-07" />
  <Tmin units="K" value="320.65" />
  <Tmax units="K" value="796" />
  </SurfaceTension>
<RPPHeatCapacityCp name="Ideal gas heat capacity (RPP)" units="J/kmol/K">
  <eqno value="4" />
  <A value="-17575" />
  <B value="2183.7" />
  <C value="-1.2207" />
  <D value="0.00026363" />
  <Tmin units="K" value="300" />
  <Tmax units="K" value="1500" />
  </RPPHeatCapacityCp>
<AntoineVaporPressure name="Antoine" units="Pa">
  <eqno value="10" />
  <A value="21.773" />
  <B value="5247.8" />
  <C value="-140.8" />
  <Tmin units="K" value="493.15" />
  <Tmax units="K" value="720.94" />
  </AntoineVaporPressure>
<LiquidViscosityRPS name="Liquid viscosity (RPS)" units="Pa.s">
  <eqno value="12" />
  <A value="-2.8318" />
  <B value="-0.0091216" />
  <Tmin units="K" value="320.65" />
  <Tmax units="K" value="654.75" />
  </LiquidViscosityRPS>
<COSTALDVolume name="COSTLD characteristic volume (V*)" units="m3/kmol" value="1.644437" />
<DiameterLJ name="Lennard Jones diameter" units="m" value="1.342746E-09" />
<EnergyLJ name="Lennard Jones energy" units="K" value="187.4249" />
<RacketParameter name="Rackett parameter" units="_" value="0.229129" />
<FullerVolume name="Fuller et al. diffusion volume" units="_" value="476.58" />
<MatthiasCopemanC2 name="Mathias-Copeman C2" units="_" value="0" />
<Parachor name="Parachor" units="kg0.25.m3/s0.5/kmol" value="0.17165" />
<SpecificGravity name="Specific gravity" units="_" value="0.798403" />
<Charge name="Charge" units="_" value="0" />
<CostaldAcentricFactor name="SRK acentric factor" units="_" value="1.02617" />
<WilsonVolume name="Wilson volume" units="m3/kmol" value="0.4074" />
<UniquacR name="UNIQUAC r" units="_" value="15.9646" />
<UniquacQ name="UNIQUAC q" units="_" value="13.036" />
<MatthiasCopemanC3 name="Mathias-Copeman C3" units="_" value="0" />
<ChaoSeaderAcentricFactor name="Chao-Seader acentric factor" units="_" value="1.02617" />
<ChaoSeaderSolubilityParameter name="Chao-Seader solubility parameter" units="J0.5/m1.5" value="15800" />
<ChaoSeaderLiquidVolume name="Chao-Seader liquid volume" units="m3/kmol" value="0.4074" />
<UnifacVLE name="UNIFAC">
  <group id="1" value="2" />
  <group id="2" value="21" />
  </UnifacVLE>
<UnifacLLE name="UNIFAC-LLE">
  <group id="1" value="2" />
  <group id="2" value="21" />
  </UnifacLLE>
<Asog name="ASOG">
  <group id="1" value="2" />
  <group id="2" value="21" />
  </Asog>
<GCmethod name="PPR78">
  <group id="1" value="2" />
  <group id="2" value="21" />
  </GCmethod>
<Umr name="UMR">
  <group id="1" value="2" />
  <group id="2" value="21" />
  </Umr>
<ModifiedUnifac name="Modified UNIFAC">
  <group id="1" value="2" />
  <group id="2" value="21" />
  </ModifiedUnifac>
<CAS name="CAS number" value="638-67-5" />
<Smiles name="SMILES" value="CCCCCCCCCCCCCCCCCCCCCCC" />
</compound>

