<compound>
<LibraryIndex name="Index" value="1761" />
<CompoundID name="Name" value="nitroethane" />
<StructureFormula name="Structure" value="CH3CH2NO2" />
<Family name="Family" value="39" />
<CriticalTemperature name="Critical temperature" units="K" value="557.15" />
<CriticalPressure name="Critical pressure" units="Pa" value="5160000" />
<CriticalVolume name="Critical volume" units="m3/kmol" value="0.236" />
<CriticalCompressibility name="Critical compressibility factor" units="_" value="0.247" />
<NormalBoilingPointTemperature name="Normal boiling point" units="K" value="387.22" />
<NormalMeltingPointTemperature name="Melting point" units="K" value="183.63" />
<TriplePointTemperature name="Triple point temperature" units="K" value="183.63" />
<TriplePointPressure name="Triple point pressure" units="Pa" value="0.0317711" />
<MolecularWeight name="Molecular weight" units="kg/kmol" value="75.0666" />
<LiquidVolumeAtNormalBoilingPoint name="Liquid molar volume at normal boiling point" units="m3/kmol" value="0.0720005" />
<AcentricityFactor name="Acentric factor" units="_" value="0.672348" />
<RadiusOfGyration name="Radius of gyration" units="m" value="2.7949E-10" />
<SolubilityParameter name="Solubility parameter" units="J0.5/m1.5" value="23090" />
<DipoleMoment name="Dipole moment" units="Coulomb.m" value="1.22E-29" />
<VanDerWaalsVolume name="Van der Waals volume" units="m3/kmol" value="0.0407" />
<VanDerWaalsArea name="Van der Waals area" units="m2/kmol" value="6.02E+08" />
<HeatOfFormation name="IG heat of formation" units="J/kmol" value="-1.022E+08" />
<GibbsEnergyOfFormation name="IG Gibbs energy of formation" units="J/kmol" value="-4900000" />
<AbsEntropy name="IG absolute entropy" units="J/kmol/K" value="315400" />
<HeatOfFusionAtMeltingPoint name="Heat of fusion at melting point" units="J/kmol" value="9853000" />
<MatthiasCopemanC1 name="Mathias-Copeman C1" units="_" value="1.53" />
<HeatOfCombustion name="Standard net heat of combustion LHV" units="J/kmol" value="-1.25E+09" />
<SolidDensity name="Solid density" units="kmol/m3">
  <eqno value="2" />
  <A value="19.737" />
  <B value="-0.01194" />
  <C value="0" />
  <D value="0" />
  <E value="0" />
  <Tmin units="K" value="73.45" />
  <Tmax units="K" value="183.63" />
  </SolidDensity>
<LiquidDensity name="Liquid density" units="kmol/m3">
  <eqno value="105" />
  <A value="0.90007" />
  <B value="0.22451" />
  <C value="593.01" />
  <D value="0.26359" />
  <Tmin units="K" value="183.63" />
  <Tmax units="K" value="593" />
  </LiquidDensity>
<VaporPressure name="Vapour pressure" units="Pa">
  <eqno value="101" />
  <A value="81.03385" />
  <B value="-7188.308" />
  <C value="-8.680357" />
  <D value="0.0000053196" />
  <E value="2" />
  <Tmin units="K" value="183.63" />
  <Tmax units="K" value="595" />
  </VaporPressure>
<HeatOfVaporization name="Heat of vaporization" units="J/kmol">
  <eqno value="106" />
  <A value="5.428692E+07" />
  <B value="0.314015" />
  <C value="-0.225443" />
  <D value="1.068645" />
  <E value="-0.953684" />
  <Tmin units="K" value="183.63" />
  <Tmax units="K" value="549.91" />
  </HeatOfVaporization>
<SolidHeatCapacityCp name="Solid heat capacity" units="J/kmol/K">
  <eqno value="100" />
  <A value="5490.6" />
  <B value="767.61" />
  <C value="-3.7362" />
  <D value="0.014315" />
  <E value="-0.000017981" />
  <Tmin units="K" value="80" />
  <Tmax units="K" value="180" />
  </SolidHeatCapacityCp>
<LiquidHeatCapacityCp name="Liquid heat capacity" units="J/kmol/K">
  <eqno value="16" />
  <A value="67990" />
  <B value="798.52" />
  <C value="2.4874" />
  <D value="0.02816" />
  <E value="-0.000027001" />
  <Tmin units="K" value="183.63" />
  <Tmax units="K" value="387.22" />
  </LiquidHeatCapacityCp>
<IdealGasHeatCapacityCp name="Ideal gas heat capacity" units="J/kmol/K">
  <eqno value="16" />
  <A value="48198" />
  <B value="-581.79" />
  <C value="12.283" />
  <D value="0.000023838" />
  <E value="-2.2739E-08" />
  <Tmin units="K" value="150" />
  <Tmax units="K" value="1500" />
  </IdealGasHeatCapacityCp>
<SecondVirialCoefficient name="Second virial coefficient" units="m3/kmol">
  <eqno value="104" />
  <A value="0.15234" />
  <B value="-172.56" />
  <C value="-45.201" />
  <D value="-57753" />
  <E value="108450" />
  <Tmin units="K" value="296.5" />
  <Tmax units="K" value="1892.5" />
  </SecondVirialCoefficient>
<LiquidViscosity name="Liquid viscosity" units="Pa.s">
  <eqno value="101" />
  <A value="15.403" />
  <B value="194.75" />
  <C value="-4.2217" />
  <D value="0.0000078126" />
  <E value="2" />
  <Tmin units="K" value="200" />
  <Tmax units="K" value="457" />
  </LiquidViscosity>
<VaporViscosity name="Vapour viscosity" units="Pa.s">
  <eqno value="102" />
  <A value="2.4631E-07" />
  <B value="0.70062" />
  <C value="285.76" />
  <D value="-1030.8" />
  <Tmin units="K" value="183.63" />
  <Tmax units="K" value="1000" />
  </VaporViscosity>
<LiquidThermalConductivity name="Liquid thermal conductivity" units="W/m/K">
  <eqno value="16" />
  <A value="-0.1486" />
  <B value="6.324" />
  <C value="-1.0708" />
  <D value="0.00009663" />
  <E value="-0.0000015981" />
  <Tmin units="K" value="183.63" />
  <Tmax units="K" value="387.22" />
  </LiquidThermalConductivity>
<VaporThermalConductivity name="Vapour thermal conductivity" units="W/m/K">
  <eqno value="102" />
  <A value="0.0011064" />
  <B value="0.69186" />
  <C value="675.03" />
  <D value="236860" />
  <Tmin units="K" value="183.63" />
  <Tmax units="K" value="1000" />
  </VaporThermalConductivity>
<SurfaceTension name="Surface tension" units="N/m">
  <eqno value="16" />
  <A value="-0.0024376" />
  <B value="342.16" />
  <C value="-7.0402" />
  <D value="0.016727" />
  <E value="-0.000027883" />
  <Tmin units="K" value="183.63" />
  <Tmax units="K" value="549.91" />
  </SurfaceTension>
<RPPHeatCapacityCp name="Ideal gas heat capacity (RPP)" units="J/kmol/K">
  <eqno value="4" />
  <A value="10768" />
  <B value="271.27" />
  <C value="-0.13688" />
  <D value="0.000024329" />
  <Tmin units="K" value="150" />
  <Tmax units="K" value="1500" />
  </RPPHeatCapacityCp>
<RelativeStaticPermittivity name="Relative static permittivity" units="_">
  <eqno value="120" />
  <A value="-22.38503" />
  <B value="-9850" />
  <C value="-59.1" />
  <Tmin units="K" value="274.15" />
  <Tmax units="K" value="444.15" />
  </RelativeStaticPermittivity>
<AntoineVaporPressure name="Antoine" units="Pa">
  <eqno value="10" />
  <A value="21.48" />
  <B value="3381.9" />
  <C value="-47.509" />
  <Tmin units="K" value="334.45" />
  <Tmax units="K" value="500" />
  </AntoineVaporPressure>
<LiquidViscosityRPS name="Liquid viscosity (RPS)" units="Pa.s">
  <eqno value="12" />
  <A value="-3.6566" />
  <B value="-0.011965" />
  <Tmin units="K" value="200" />
  <Tmax units="K" value="387.22" />
  </LiquidViscosityRPS>
<COSTALDVolume name="COSTLD characteristic volume (V*)" units="m3/kmol" value="0.215813" />
<DiameterLJ name="Lennard Jones diameter" units="m" value="6.175128E-10" />
<EnergyLJ name="Lennard Jones energy" units="K" value="236.916" />
<RacketParameter name="Rackett parameter" units="_" value="0.247" />
<FullerVolume name="Fuller et al. diffusion volume" units="_" value="60.11" />
<MatthiasCopemanC2 name="Mathias-Copeman C2" units="_" value="0" />
<Parachor name="Parachor" units="kg0.25.m3/s0.5/kmol" value="0.0298367" />
<SpecificGravity name="Specific gravity" units="_" value="1.054543" />
<Charge name="Charge" units="_" value="0" />
<CostaldAcentricFactor name="SRK acentric factor" units="_" value="0.380324" />
<WilsonVolume name="Wilson volume" units="m3/kmol" value="0.0720005" />
<UniquacR name="UNIQUAC r" units="_" value="2.6829" />
<UniquacQ name="UNIQUAC q" units="_" value="2.408" />
<MatthiasCopemanC3 name="Mathias-Copeman C3" units="_" value="0" />
<ChaoSeaderAcentricFactor name="Chao-Seader acentric factor" units="_" value="0.380324" />
<ChaoSeaderSolubilityParameter name="Chao-Seader solubility parameter" units="J0.5/m1.5" value="23090" />
<ChaoSeaderLiquidVolume name="Chao-Seader liquid volume" units="m3/kmol" value="0.0720005" />
<UnifacVLE name="UNIFAC">
  <group id="1" value="1" />
  <group id="56" value="1" />
  </UnifacVLE>
<UnifacLLE name="UNIFAC-LLE">
  <group id="1" value="1" />
  <group id="45" value="1" />
  </UnifacLLE>
<Asog name="ASOG">
  <group id="1" value="1" />
  <group id="2" value="1" />
  <group id="33" value="1" />
  </Asog>
<Umr name="UMR">
  <group id="1" value="1" />
  <group id="56" value="1" />
  </Umr>
<ModifiedUnifac name="Modified UNIFAC">
  <group id="1" value="1" />
  <group id="55" value="1" />
  </ModifiedUnifac>
<CAS name="CAS number" value="79-24-3" />
<Smiles name="SMILES" value="CCN(=O)=O" />
</compound>

