<compound>
<LibraryIndex name="Index" value="1131" />
<CompoundID name="Name" value="o,p-bisphenol a" />
<StructureFormula name="Structure" value="((C6H4)OH)2C(CH3)2" />
<Family name="Family" value="49" />
<CriticalTemperature name="Critical temperature" units="K" value="849.1" />
<CriticalPressure name="Critical pressure" units="Pa" value="2925000" />
<CriticalVolume name="Critical volume" units="m3/kmol" value="0.676" />
<CriticalCompressibility name="Critical compressibility factor" units="_" value="0.28" />
<NormalBoilingPointTemperature name="Normal boiling point" units="K" value="633.7" />
<NormalMeltingPointTemperature name="Melting point" units="K" value="384.15" />
<TriplePointTemperature name="Triple point temperature" units="K" value="384.15" />
<TriplePointPressure name="Triple point pressure" units="Pa" value="0.0791" />
<MolecularWeight name="Molecular weight" units="kg/kmol" value="228.286" />
<LiquidVolumeAtNormalBoilingPoint name="Liquid molar volume at normal boiling point" units="m3/kmol" value="0.2314" />
<AcentricityFactor name="Acentric factor" units="_" value="0.93202" />
<RadiusOfGyration name="Radius of gyration" units="m" value="5.724E-10" />
<SolubilityParameter name="Solubility parameter" units="J0.5/m1.5" value="24130" />
<DipoleMoment name="Dipole moment" units="Coulomb.m" value="7.51E-30" />
<VanDerWaalsVolume name="Van der Waals volume" units="m3/kmol" value="0.1371" />
<VanDerWaalsArea name="Van der Waals area" units="m2/kmol" value="1.58E+09" />
<HeatOfFormation name="IG heat of formation" units="J/kmol" value="-1.4419E+08" />
<GibbsEnergyOfFormation name="IG Gibbs energy of formation" units="J/kmol" value="1.206E+08" />
<AbsEntropy name="IG absolute entropy" units="J/kmol/K" value="448500" />
<HeatOfFusionAtMeltingPoint name="Heat of fusion at melting point" units="J/kmol" value="2.54E+07" />
<HeatOfCombustion name="Standard net heat of combustion LHV" units="J/kmol" value="-7.52752E+09" />
<SolidDensity name="Solid density" units="kmol/m3">
  <eqno value="100" />
  <A value="5.5318" />
  <B value="-0.0018" />
  <C value="0" />
  <D value="0" />
  <E value="0" />
  <Tmin units="K" value="154" />
  <Tmax units="K" value="384.15" />
  </SolidDensity>
<LiquidDensity name="Liquid density" units="kmol/m3">
  <eqno value="105" />
  <A value="0.41435" />
  <B value="0.28" />
  <C value="849.1" />
  <D value="0.28571" />
  <Tmin units="K" value="384.15" />
  <Tmax units="K" value="849.1" />
  </LiquidDensity>
<VaporPressure name="Vapour pressure" units="Pa">
  <eqno value="101" />
  <A value="242.77" />
  <B value="-27771" />
  <C value="-29.074" />
  <D value="2.4243E-18" />
  <E value="6" />
  <Tmin units="K" value="384.15" />
  <Tmax units="K" value="849.1" />
  </VaporPressure>
<HeatOfVaporization name="Heat of vaporization" units="J/kmol">
  <eqno value="106" />
  <A value="1.9497E+08" />
  <B value="0.14348" />
  <C value="1.3583" />
  <D value="-0.89398" />
  <E value="0" />
  <Tmin units="K" value="384.15" />
  <Tmax units="K" value="849.1" />
  </HeatOfVaporization>
<SolidHeatCapacityCp name="Solid heat capacity" units="J/kmol/K">
  <eqno value="100" />
  <A value="13452" />
  <B value="1003" />
  <C value="-0.35568" />
  <D value="0" />
  <E value="0" />
  <Tmin units="K" value="50" />
  <Tmax units="K" value="384.15" />
  </SolidHeatCapacityCp>
<LiquidHeatCapacityCp name="Liquid heat capacity" units="J/kmol/K">
  <eqno value="100" />
  <A value="-36032" />
  <B value="2037.2" />
  <C value="-1.3487" />
  <D value="0" />
  <E value="0" />
  <Tmin units="K" value="384.15" />
  <Tmax units="K" value="633.7" />
  </LiquidHeatCapacityCp>
<IdealGasHeatCapacityCp name="Ideal gas heat capacity" units="J/kmol/K">
  <eqno value="16" />
  <A value="120000" />
  <B value="-525" />
  <C value="13.63" />
  <D value="0" />
  <E value="0" />
  <Tmin units="K" value="255" />
  <Tmax units="K" value="1500" />
  </IdealGasHeatCapacityCp>
<SecondVirialCoefficient name="Second virial coefficient" units="m3/kmol">
  <eqno value="104" />
  <A value="0.38794" />
  <B value="-360.12" />
  <C value="-5.2377E+08" />
  <D value="-1.2329E+22" />
  <E value="2.061E+24" />
  <Tmin units="K" value="424.55" />
  <Tmax units="K" value="1500" />
  </SecondVirialCoefficient>
<LiquidViscosity name="Liquid viscosity" units="Pa.s">
  <eqno value="101" />
  <A value="-41.454" />
  <B value="4157.1" />
  <C value="4.1206" />
  <D value="0" />
  <E value="0" />
  <Tmin units="K" value="384.15" />
  <Tmax units="K" value="633.7" />
  </LiquidViscosity>
<VaporViscosity name="Vapour viscosity" units="Pa.s">
  <eqno value="102" />
  <A value="0.000052962" />
  <B value="0.085222" />
  <C value="5036.4" />
  <D value="0" />
  <Tmin units="K" value="384.15" />
  <Tmax units="K" value="1000" />
  </VaporViscosity>
<LiquidThermalConductivity name="Liquid thermal conductivity" units="W/m/K">
  <eqno value="100" />
  <A value="0.17972" />
  <B value="-0.00011781" />
  <C value="0" />
  <D value="0" />
  <E value="0" />
  <Tmin units="K" value="384.15" />
  <Tmax units="K" value="633.7" />
  </LiquidThermalConductivity>
<VaporThermalConductivity name="Vapour thermal conductivity" units="W/m/K">
  <eqno value="102" />
  <A value="0.00011583" />
  <B value="0.97759" />
  <C value="808.01" />
  <D value="0" />
  <Tmin units="K" value="633.7" />
  <Tmax units="K" value="1000" />
  </VaporThermalConductivity>
<SurfaceTension name="Surface tension" units="N/m">
  <eqno value="106" />
  <A value="0.0489" />
  <B value="1.1322" />
  <C value="0" />
  <D value="0" />
  <E value="0" />
  <Tmin units="K" value="384.15" />
  <Tmax units="K" value="849.1" />
  </SurfaceTension>
<AntoineVaporPressure name="Antoine" units="Pa">
  <eqno value="10" />
  <A value="22.28643" />
  <B value="4015.679" />
  <C value="-46.64973" />
  <Tmin units="K" value="506.96" />
  <Tmax units="K" value="849.1" />
  </AntoineVaporPressure>
<FullerVolume name="Fuller et al. diffusion volume" units="_" value="251.08" />
<CostaldAcentricFactor name="SRK acentric factor" units="_" value="0.93202" />
<WilsonVolume name="Wilson volume" units="m3/kmol" value="0.2314" />
<UniquacR name="UNIQUAC r" units="_" value="8.7929" />
<UniquacQ name="UNIQUAC q" units="_" value="6.496" />
<ChaoSeaderAcentricFactor name="Chao-Seader acentric factor" units="_" value="0.93202" />
<ChaoSeaderSolubilityParameter name="Chao-Seader solubility parameter" units="J0.5/m1.5" value="24130" />
<ChaoSeaderLiquidVolume name="Chao-Seader liquid volume" units="m3/kmol" value="0.2314" />
<UnifacVLE name="UNIFAC">
  <group id="1" value="2" />
  <group id="4" value="1" />
  <group id="10" value="8" />
  <group id="11" value="2" />
  <group id="18" value="2" />
  </UnifacVLE>
<UnifacLLE name="UNIFAC-LLE">
  <group id="1" value="2" />
  <group id="4" value="1" />
  <group id="9" value="8" />
  <group id="10" value="2" />
  <group id="18" value="2" />
  </UnifacLLE>
<Asog name="ASOG">
  <group id="1" value="2" />
  <group id="4" value="1" />
  <group id="10" value="8" />
  <group id="11" value="2" />
  <group id="16" value="2" />
  </Asog>
<GCmethod name="PPR78">
  <group id="1" value="2" />
  <group id="4" value="1" />
  <group id="7" value="8" />
  <group id="8" value="2" />
  </GCmethod>
<Umr name="UMR">
  <group id="1" value="2" />
  <group id="4" value="1" />
  <group id="10" value="8" />
  <group id="11" value="2" />
  <group id="18" value="2" />
  </Umr>
<ModifiedUnifac name="Modified UNIFAC">
  <group id="1" value="2" />
  <group id="4" value="1" />
  <group id="9" value="8" />
  <group id="10" value="2" />
  <group id="17" value="2" />
  </ModifiedUnifac>
<CAS name="CAS number" value="837-08-1" />
<Smiles name="SMILES" value="CC(C)(c1ccc(cc1)O)c2ccccc2O" />
</compound>

