<compound>
<LibraryIndex name="Index" value="522" />
<CompoundID name="Name" value="o-cymene" />
<StructureFormula name="Structure" value="CH3(C6H4)CH(CH3)2" />
<Family name="Family" value="17" />
<CriticalTemperature name="Critical temperature" units="K" value="670.15" />
<CriticalPressure name="Critical pressure" units="Pa" value="2895870" />
<CriticalVolume name="Critical volume" units="m3/kmol" value="0.478" />
<CriticalCompressibility name="Critical compressibility factor" units="_" value="0.26" />
<NormalBoilingPointTemperature name="Normal boiling point" units="K" value="451.33" />
<NormalMeltingPointTemperature name="Melting point" units="K" value="201.64" />
<TriplePointTemperature name="Triple point temperature" units="K" value="201.64" />
<TriplePointPressure name="Triple point pressure" units="Pa" value="0.0177118" />
<MolecularWeight name="Molecular weight" units="kg/kmol" value="134.2182" />
<LiquidVolumeAtNormalBoilingPoint name="Liquid molar volume at normal boiling point" units="m3/kmol" value="0.153824" />
<AcentricityFactor name="Acentric factor" units="_" value="0.2769" />
<RadiusOfGyration name="Radius of gyration" units="m" value="4.439E-10" />
<SolubilityParameter name="Solubility parameter" units="J0.5/m1.5" value="17160" />
<DipoleMoment name="Dipole moment" units="Coulomb.m" value="2.0E-30" />
<VanDerWaalsVolume name="Van der Waals volume" units="m3/kmol" value="0.09111" />
<VanDerWaalsArea name="Van der Waals area" units="m2/kmol" value="1.153E+09" />
<HeatOfFormation name="IG heat of formation" units="J/kmol" value="-2.56061E+07" />
<GibbsEnergyOfFormation name="IG Gibbs energy of formation" units="J/kmol" value="1.37359E+08" />
<AbsEntropy name="IG absolute entropy" units="J/kmol/K" value="425500" />
<HeatOfFusionAtMeltingPoint name="Heat of fusion at melting point" units="J/kmol" value="1.0E+07" />
<MatthiasCopemanC1 name="Mathias-Copeman C1" units="_" value="0.9" />
<HeatOfCombustion name="Standard net heat of combustion LHV" units="J/kmol" value="-5.56053E+09" />
<SolidDensity name="Solid density" units="kmol/m3">
  <eqno value="2" />
  <A value="8.9396" />
  <B value="-0.0049298" />
  <C value="0" />
  <D value="0" />
  <E value="0" />
  <Tmin units="K" value="80.66" />
  <Tmax units="K" value="201.64" />
  </SolidDensity>
<LiquidDensity name="Liquid density" units="kmol/m3">
  <eqno value="105" />
  <A value="0.017298" />
  <B value="0.046645" />
  <C value="670.15" />
  <D value="0.11526" />
  <Tmin units="K" value="201.64" />
  <Tmax units="K" value="657" />
  </LiquidDensity>
<VaporPressure name="Vapour pressure" units="Pa">
  <eqno value="101" />
  <A value="47.323" />
  <B value="-6536.6" />
  <C value="-3.5074" />
  <D value="6.0254E-07" />
  <E value="2" />
  <Tmin units="K" value="201.64" />
  <Tmax units="K" value="657" />
  </VaporPressure>
<HeatOfVaporization name="Heat of vaporization" units="J/kmol">
  <eqno value="106" />
  <A value="8.44827E+07" />
  <B value="3.205721" />
  <C value="-8.334975" />
  <D value="9.055186" />
  <E value="-3.399515" />
  <Tmin units="K" value="201.64" />
  <Tmax units="K" value="657" />
  </HeatOfVaporization>
<SolidHeatCapacityCp name="Solid heat capacity" units="J/kmol/K">
  <eqno value="1" />
  <A value="214740" />
  <Tmin units="K" value="0" />
  <Tmax units="K" value="670.15" />
  </SolidHeatCapacityCp>
<LiquidHeatCapacityCp name="Liquid heat capacity" units="J/kmol/K">
  <eqno value="16" />
  <A value="130330" />
  <B value="-123.14" />
  <C value="10.583" />
  <D value="0.0062464" />
  <E value="-0.0000049954" />
  <Tmin units="K" value="201.64" />
  <Tmax units="K" value="451.33" />
  </LiquidHeatCapacityCp>
<IdealGasHeatCapacityCp name="Ideal gas heat capacity" units="J/kmol/K">
  <eqno value="16" />
  <A value="105060" />
  <B value="-664.9" />
  <C value="13.437" />
  <D value="-0.00013826" />
  <E value="2.1794E-08" />
  <Tmin units="K" value="273" />
  <Tmax units="K" value="1500" />
  </IdealGasHeatCapacityCp>
<SecondVirialCoefficient name="Second virial coefficient" units="m3/kmol">
  <eqno value="104" />
  <A value="0.021656" />
  <B value="-196.81" />
  <C value="-126.59" />
  <D value="-24488" />
  <E value="23531" />
  <Tmin units="K" value="201.64" />
  <Tmax units="K" value="1500" />
  </SecondVirialCoefficient>
<LiquidViscosity name="Liquid viscosity" units="Pa.s">
  <eqno value="101" />
  <A value="-8.1679" />
  <B value="885.64" />
  <C value="-0.29176" />
  <D value="-7.7161E-07" />
  <E value="2" />
  <Tmin units="K" value="201.64" />
  <Tmax units="K" value="600" />
  </LiquidViscosity>
<VaporViscosity name="Vapour viscosity" units="Pa.s">
  <eqno value="102" />
  <A value="0.0000020745" />
  <B value="0.37852" />
  <C value="642.92" />
  <D value="259.27" />
  <Tmin units="K" value="201.64" />
  <Tmax units="K" value="1000" />
  </VaporViscosity>
<LiquidThermalConductivity name="Liquid thermal conductivity" units="W/m/K">
  <eqno value="16" />
  <A value="0.06145" />
  <B value="-173.56" />
  <C value="-0.23519" />
  <D value="-0.0077758" />
  <E value="0.0000038715" />
  <Tmin units="K" value="201.64" />
  <Tmax units="K" value="451.33" />
  </LiquidThermalConductivity>
<VaporThermalConductivity name="Vapour thermal conductivity" units="W/m/K">
  <eqno value="102" />
  <A value="0.000020459" />
  <B value="1.2217" />
  <C value="183.94" />
  <D value="51167" />
  <Tmin units="K" value="201.64" />
  <Tmax units="K" value="1000" />
  </VaporThermalConductivity>
<SurfaceTension name="Surface tension" units="N/m">
  <eqno value="16" />
  <A value="-0.012864" />
  <B value="40.847" />
  <C value="-2.9372" />
  <D value="-0.0001363" />
  <E value="-0.0000031711" />
  <Tmin units="K" value="201.64" />
  <Tmax units="K" value="657" />
  </SurfaceTension>
<RPPHeatCapacityCp name="Ideal gas heat capacity (RPP)" units="J/kmol/K">
  <eqno value="4" />
  <A value="-31175" />
  <B value="828.19" />
  <C value="-0.48457" />
  <D value="0.00010664" />
  <Tmin units="K" value="298.15" />
  <Tmax units="K" value="1500" />
  </RPPHeatCapacityCp>
<AntoineVaporPressure name="Antoine" units="Pa">
  <eqno value="10" />
  <A value="21.481" />
  <B value="4002" />
  <C value="-49.35" />
  <Tmin units="K" value="402.63" />
  <Tmax units="K" value="585.1" />
  </AntoineVaporPressure>
<LiquidViscosityRPS name="Liquid viscosity (RPS)" units="Pa.s">
  <eqno value="12" />
  <A value="-4.1517" />
  <B value="-0.0089047" />
  <Tmin units="K" value="201.64" />
  <Tmax units="K" value="529.6" />
  </LiquidViscosityRPS>
<COSTALDVolume name="COSTLD characteristic volume (V*)" units="m3/kmol" value="0.501549" />
<DiameterLJ name="Lennard Jones diameter" units="m" value="7.346598E-10" />
<EnergyLJ name="Lennard Jones energy" units="K" value="342.7593" />
<RacketParameter name="Rackett parameter" units="_" value="0.26" />
<FullerVolume name="Fuller et al. diffusion volume" units="_" value="173.04" />
<MatthiasCopemanC2 name="Mathias-Copeman C2" units="_" value="0" />
<Parachor name="Parachor" units="kg0.25.m3/s0.5/kmol" value="0.0648833" />
<SpecificGravity name="Specific gravity" units="_" value="0.880891" />
<Charge name="Charge" units="_" value="0" />
<CostaldAcentricFactor name="SRK acentric factor" units="_" value="0.2769" />
<WilsonVolume name="Wilson volume" units="m3/kmol" value="0.153824" />
<UniquacR name="UNIQUAC r" units="_" value="6.0058" />
<UniquacQ name="UNIQUAC q" units="_" value="4.612" />
<MatthiasCopemanC3 name="Mathias-Copeman C3" units="_" value="0" />
<ChaoSeaderAcentricFactor name="Chao-Seader acentric factor" units="_" value="0.2769" />
<ChaoSeaderSolubilityParameter name="Chao-Seader solubility parameter" units="J0.5/m1.5" value="17160" />
<ChaoSeaderLiquidVolume name="Chao-Seader liquid volume" units="m3/kmol" value="0.153824" />
<UnifacVLE name="UNIFAC">
  <group id="1" value="2" />
  <group id="10" value="4" />
  <group id="12" value="1" />
  <group id="14" value="1" />
  </UnifacVLE>
<UnifacLLE name="UNIFAC-LLE">
  <group id="1" value="2" />
  <group id="9" value="4" />
  <group id="11" value="1" />
  <group id="13" value="1" />
  </UnifacLLE>
<Asog name="ASOG">
  <group id="1" value="3" />
  <group id="3" value="1" />
  <group id="10" value="4" />
  <group id="11" value="2" />
  </Asog>
<GCmethod name="PPR78">
  <group id="1" value="3" />
  <group id="7" value="4" />
  <group id="8" value="2" />
  <group id="3" value="1" />
  </GCmethod>
<Umr name="UMR">
  <group id="1" value="2" />
  <group id="10" value="4" />
  <group id="12" value="1" />
  <group id="14" value="1" />
  </Umr>
<ModifiedUnifac name="Modified UNIFAC">
  <group id="1" value="2" />
  <group id="9" value="4" />
  <group id="11" value="1" />
  <group id="13" value="1" />
  </ModifiedUnifac>
<CAS name="CAS number" value="527-84-4" />
<Smiles name="SMILES" value="c1(C(C)C)c(C)cccc1" />
</compound>

