<compound>
<LibraryIndex name="Index" value="1778" />
<CompoundID name="Name" value="o-nitrotoluene" />
<StructureFormula name="Structure" value="C6H4(NO2)(CH3)" />
<Family name="Family" value="39" />
<CriticalTemperature name="Critical temperature" units="K" value="720" />
<CriticalPressure name="Critical pressure" units="Pa" value="3800000" />
<CriticalVolume name="Critical volume" units="m3/kmol" value="0.441" />
<CriticalCompressibility name="Critical compressibility factor" units="_" value="0.28" />
<NormalBoilingPointTemperature name="Normal boiling point" units="K" value="494.85" />
<NormalMeltingPointTemperature name="Melting point" units="K" value="269.65" />
<TriplePointTemperature name="Triple point temperature" units="K" value="269.98" />
<TriplePointPressure name="Triple point pressure" units="Pa" value="1.72928" />
<MolecularWeight name="Molecular weight" units="kg/kmol" value="137.136" />
<LiquidVolumeAtNormalBoilingPoint name="Liquid molar volume at normal boiling point" units="m3/kmol" value="0.118442" />
<AcentricityFactor name="Acentric factor" units="_" value="0.487824" />
<RadiusOfGyration name="Radius of gyration" units="m" value="4.309E-10" />
<SolubilityParameter name="Solubility parameter" units="J0.5/m1.5" value="21420" />
<DipoleMoment name="Dipole moment" units="Coulomb.m" value="1.25E-29" />
<VanDerWaalsVolume name="Van der Waals volume" units="m3/kmol" value="0.07379" />
<VanDerWaalsArea name="Van der Waals area" units="m2/kmol" value="9.27E+08" />
<HeatOfFormation name="IG heat of formation" units="J/kmol" value="4.71E+07" />
<GibbsEnergyOfFormation name="IG Gibbs energy of formation" units="J/kmol" value="1.715E+08" />
<AbsEntropy name="IG absolute entropy" units="J/kmol/K" value="380800" />
<HeatOfFusionAtMeltingPoint name="Heat of fusion at melting point" units="J/kmol" value="1.148E+07" />
<MatthiasCopemanC1 name="Mathias-Copeman C1" units="_" value="1.2029" />
<HeatOfCombustion name="Standard net heat of combustion LHV" units="J/kmol" value="-3.5914E+09" />
<SolidDensity name="Solid density" units="kmol/m3">
  <eqno value="2" />
  <A value="10.967" />
  <B value="-0.0045272" />
  <C value="0" />
  <D value="0" />
  <E value="0" />
  <Tmin units="K" value="107.99" />
  <Tmax units="K" value="269.98" />
  </SolidDensity>
<LiquidDensity name="Liquid density" units="kmol/m3">
  <eqno value="105" />
  <A value="0.49527" />
  <B value="0.21852" />
  <C value="720" />
  <D value="0.27202" />
  <Tmin units="K" value="269.98" />
  <Tmax units="K" value="720" />
  </LiquidDensity>
<VaporPressure name="Vapour pressure" units="Pa">
  <eqno value="101" />
  <A value="110.496" />
  <B value="-10356.21" />
  <C value="-12.86215" />
  <D value="7.080827E-06" />
  <E value="2" />
  <Tmin units="K" value="265" />
  <Tmax units="K" value="720" />
  </VaporPressure>
<HeatOfVaporization name="Heat of vaporization" units="J/kmol">
  <eqno value="106" />
  <A value="7.853006E+07" />
  <B value="0.959622" />
  <C value="-1.263212" />
  <D value="1.073123" />
  <E value="-0.436452" />
  <Tmin units="K" value="269.98" />
  <Tmax units="K" value="720" />
  </HeatOfVaporization>
<SolidHeatCapacityCp name="Solid heat capacity" units="J/kmol/K">
  <eqno value="100" />
  <A value="23321" />
  <B value="179.27" />
  <C value="6.0748" />
  <D value="-0.034038" />
  <E value="0.000061259" />
  <Tmin units="K" value="50" />
  <Tmax units="K" value="269.98" />
  </SolidHeatCapacityCp>
<LiquidHeatCapacityCp name="Liquid heat capacity" units="J/kmol/K">
  <eqno value="16" />
  <A value="167320" />
  <B value="675.67" />
  <C value="2.8482" />
  <D value="0.023742" />
  <E value="-0.00001748" />
  <Tmin units="K" value="269.98" />
  <Tmax units="K" value="540" />
  </LiquidHeatCapacityCp>
<IdealGasHeatCapacityCp name="Ideal gas heat capacity" units="J/kmol/K">
  <eqno value="16" />
  <A value="126830" />
  <B value="-1053.5" />
  <C value="13.982" />
  <D value="-0.0011308" />
  <E value="3.2272E-07" />
  <Tmin units="K" value="273" />
  <Tmax units="K" value="1500" />
  </IdealGasHeatCapacityCp>
<SecondVirialCoefficient name="Second virial coefficient" units="m3/kmol">
  <eqno value="104" />
  <A value="0.25342" />
  <B value="-324.82" />
  <C value="-137.34" />
  <D value="-228340" />
  <E value="439210" />
  <Tmin units="K" value="360" />
  <Tmax units="K" value="1980" />
  </SecondVirialCoefficient>
<LiquidViscosity name="Liquid viscosity" units="Pa.s">
  <eqno value="101" />
  <A value="-227.78" />
  <B value="9560.6" />
  <C value="33.954" />
  <D value="-0.00004379" />
  <E value="2" />
  <Tmin units="K" value="269.98" />
  <Tmax units="K" value="576" />
  </LiquidViscosity>
<VaporViscosity name="Vapour viscosity" units="Pa.s">
  <eqno value="102" />
  <A value="3.9111E-08" />
  <B value="0.92063" />
  <C value="61.279" />
  <D value="-2619.3" />
  <Tmin units="K" value="269.98" />
  <Tmax units="K" value="1000" />
  </VaporViscosity>
<LiquidThermalConductivity name="Liquid thermal conductivity" units="W/m/K">
  <eqno value="16" />
  <A value="-0.28005" />
  <B value="20.455" />
  <C value="-0.90478" />
  <D value="0.000049377" />
  <E value="-4.8022E-07" />
  <Tmin units="K" value="216" />
  <Tmax units="K" value="576" />
  </LiquidThermalConductivity>
<VaporThermalConductivity name="Vapour thermal conductivity" units="W/m/K">
  <eqno value="102" />
  <A value="0.00013501" />
  <B value="0.95252" />
  <C value="632.43" />
  <D value="27080" />
  <Tmin units="K" value="269.98" />
  <Tmax units="K" value="1000" />
  </VaporThermalConductivity>
<SurfaceTension name="Surface tension" units="N/m">
  <eqno value="16" />
  <A value="-0.07846" />
  <B value="-32.848" />
  <C value="-1.5968" />
  <D value="-0.0015031" />
  <E value="3.3724E-07" />
  <Tmin units="K" value="269.98" />
  <Tmax units="K" value="720" />
  </SurfaceTension>
<RPPHeatCapacityCp name="Ideal gas heat capacity (RPP)" units="J/kmol/K">
  <eqno value="4" />
  <A value="13539" />
  <B value="550.05" />
  <C value="-0.32279" />
  <D value="0.000069576" />
  <Tmin units="K" value="273" />
  <Tmax units="K" value="1500" />
  </RPPHeatCapacityCp>
<RelativeStaticPermittivity name="Relative static permittivity" units="_">
  <eqno value="120" />
  <A value="-20.0046" />
  <B value="-10000" />
  <C value="-82.2" />
  <Tmin units="K" value="274.15" />
  <Tmax units="K" value="444.15" />
  </RelativeStaticPermittivity>
<AntoineVaporPressure name="Antoine" units="Pa">
  <eqno value="10" />
  <A value="21.718" />
  <B value="4428.1" />
  <C value="-60.639" />
  <Tmin units="K" value="435.78" />
  <Tmax units="K" value="645" />
  </AntoineVaporPressure>
<LiquidViscosityRPS name="Liquid viscosity (RPS)" units="Pa.s">
  <eqno value="12" />
  <A value="-2.2034" />
  <B value="-0.01309" />
  <Tmin units="K" value="269.98" />
  <Tmax units="K" value="576" />
  </LiquidViscosityRPS>
<COSTALDVolume name="COSTLD characteristic volume (V*)" units="m3/kmol" value="0.398619" />
<DiameterLJ name="Lennard Jones diameter" units="m" value="6.543371E-10" />
<EnergyLJ name="Lennard Jones energy" units="K" value="480.8555" />
<RacketParameter name="Rackett parameter" units="_" value="0.28" />
<FullerVolume name="Fuller et al. diffusion volume" units="_" value="107.72" />
<MatthiasCopemanC2 name="Mathias-Copeman C2" units="_" value="-0.61215" />
<Parachor name="Parachor" units="kg0.25.m3/s0.5/kmol" value="0.054527" />
<SpecificGravity name="Specific gravity" units="_" value="1.057273" />
<Charge name="Charge" units="_" value="0" />
<CostaldAcentricFactor name="SRK acentric factor" units="_" value="0.487824" />
<WilsonVolume name="Wilson volume" units="m3/kmol" value="0.118442" />
<UniquacR name="UNIQUAC r" units="_" value="4.2801" />
<UniquacQ name="UNIQUAC q" units="_" value="3.272" />
<MatthiasCopemanC3 name="Mathias-Copeman C3" units="_" value="1.2945" />
<ChaoSeaderAcentricFactor name="Chao-Seader acentric factor" units="_" value="0.487824" />
<ChaoSeaderSolubilityParameter name="Chao-Seader solubility parameter" units="J0.5/m1.5" value="21420" />
<ChaoSeaderLiquidVolume name="Chao-Seader liquid volume" units="m3/kmol" value="0.118442" />
<UnifacVLE name="UNIFAC">
  <group id="10" value="4" />
  <group id="12" value="1" />
  <group id="58" value="1" />
  </UnifacVLE>
<UnifacLLE name="UNIFAC-LLE">
  <group id="9" value="4" />
  <group id="11" value="1" />
  <group id="47" value="1" />
  </UnifacLLE>
<Asog name="ASOG">
  <group id="1" value="1" />
  <group id="10" value="4" />
  <group id="11" value="2" />
  <group id="34" value="1" />
  </Asog>
<Umr name="UMR">
  <group id="10" value="4" />
  <group id="12" value="1" />
  <group id="58" value="1" />
  </Umr>
<ModifiedUnifac name="Modified UNIFAC">
  <group id="9" value="4" />
  <group id="11" value="1" />
  <group id="57" value="1" />
  </ModifiedUnifac>
<CAS name="CAS number" value="88-72-2" />
<Smiles name="SMILES" value="c1(C)c(N(=O)=O)cccc1" />
</compound>

