<compound>
<LibraryIndex name="Index" value="2197" />
<CompoundID name="Name" value="p-cumylphenol" />
<StructureFormula name="Structure" value="(C6H5)C(CH3)2(C6H4)OH" />
<Family name="Family" value="48" />
<CriticalTemperature name="Critical temperature" units="K" value="834" />
<CriticalPressure name="Critical pressure" units="Pa" value="2680000" />
<CriticalVolume name="Critical volume" units="m3/kmol" value="0.659" />
<CriticalCompressibility name="Critical compressibility factor" units="_" value="0.29" />
<NormalBoilingPointTemperature name="Normal boiling point" units="K" value="608.15" />
<NormalMeltingPointTemperature name="Melting point" units="K" value="346" />
<TriplePointTemperature name="Triple point temperature" units="K" value="346.3" />
<TriplePointPressure name="Triple point pressure" units="Pa" value="1.14144" />
<MolecularWeight name="Molecular weight" units="kg/kmol" value="212.287" />
<LiquidVolumeAtNormalBoilingPoint name="Liquid molar volume at normal boiling point" units="m3/kmol" value="0.202977" />
<AcentricityFactor name="Acentric factor" units="_" value="0.688847" />
<RadiusOfGyration name="Radius of gyration" units="m" value="5.739E-10" />
<SolubilityParameter name="Solubility parameter" units="J0.5/m1.5" value="19900" />
<DipoleMoment name="Dipole moment" units="Coulomb.m" value="4.43E-30" />
<VanDerWaalsVolume name="Van der Waals volume" units="m3/kmol" value="0.12787" />
<VanDerWaalsArea name="Van der Waals area" units="m2/kmol" value="1.559E+09" />
<HeatOfFormation name="IG heat of formation" units="J/kmol" value="-6.453E+07" />
<GibbsEnergyOfFormation name="IG Gibbs energy of formation" units="J/kmol" value="1.462E+08" />
<AbsEntropy name="IG absolute entropy" units="J/kmol/K" value="526400" />
<HeatOfFusionAtMeltingPoint name="Heat of fusion at melting point" units="J/kmol" value="2.28028E+07" />
<HeatOfCombustion name="Standard net heat of combustion LHV" units="J/kmol" value="-7.665E+09" />
<SolidDensity name="Solid density" units="kmol/m3">
  <eqno value="100" />
  <A value="6.3061" />
  <B value="-0.0022763" />
  <C value="0" />
  <D value="0" />
  <E value="0" />
  <Tmin units="K" value="138.52" />
  <Tmax units="K" value="346.3" />
  </SolidDensity>
<LiquidDensity name="Liquid density" units="kmol/m3">
  <eqno value="105" />
  <A value="0.33711" />
  <B value="0.23698" />
  <C value="834" />
  <D value="0.27507" />
  <Tmin units="K" value="346.3" />
  <Tmax units="K" value="834" />
  </LiquidDensity>
<VaporPressure name="Vapour pressure" units="Pa">
  <eqno value="101" />
  <A value="139.55" />
  <B value="-15563" />
  <C value="-16.255" />
  <D value="0.0000047617" />
  <E value="2" />
  <Tmin units="K" value="346.3" />
  <Tmax units="K" value="834" />
  </VaporPressure>
<HeatOfVaporization name="Heat of vaporization" units="J/kmol">
  <eqno value="106" />
  <A value="1.0203E+08" />
  <B value="0.37931" />
  <C value="0" />
  <D value="0" />
  <E value="0" />
  <Tmin units="K" value="346.3" />
  <Tmax units="K" value="834" />
  </HeatOfVaporization>
<SolidHeatCapacityCp name="Solid heat capacity" units="J/kmol/K">
  <eqno value="100" />
  <A value="-56539" />
  <B value="1105.8" />
  <C value="0" />
  <D value="0" />
  <E value="0" />
  <Tmin units="K" value="270" />
  <Tmax units="K" value="346.3" />
  </SolidHeatCapacityCp>
<LiquidHeatCapacityCp name="Liquid heat capacity" units="J/kmol/K">
  <eqno value="100" />
  <A value="289510" />
  <B value="423.83" />
  <C value="0" />
  <D value="0" />
  <E value="0" />
  <Tmin units="K" value="346.3" />
  <Tmax units="K" value="600" />
  </LiquidHeatCapacityCp>
<IdealGasHeatCapacityCp name="Ideal gas heat capacity" units="J/kmol/K">
  <eqno value="16" />
  <A value="118510.7" />
  <B value="-520" />
  <C value="13.57" />
  <D value="0" />
  <E value="0" />
  <Tmin units="K" value="255" />
  <Tmax units="K" value="1500" />
  </IdealGasHeatCapacityCp>
<SecondVirialCoefficient name="Second virial coefficient" units="m3/kmol">
  <eqno value="104" />
  <A value="0.41204" />
  <B value="-523.28" />
  <C value="-3.7536E+08" />
  <D value="-4.8169E+21" />
  <E value="4.2237E+23" />
  <Tmin units="K" value="417" />
  <Tmax units="K" value="1500" />
  </SecondVirialCoefficient>
<LiquidViscosity name="Liquid viscosity" units="Pa.s">
  <eqno value="101" />
  <A value="-11.89" />
  <B value="1969.5" />
  <C value="0" />
  <D value="0" />
  <E value="0" />
  <Tmin units="K" value="346.3" />
  <Tmax units="K" value="667.2" />
  </LiquidViscosity>
<VaporViscosity name="Vapour viscosity" units="Pa.s">
  <eqno value="102" />
  <A value="0.0000015711" />
  <B value="0.4289" />
  <C value="869.25" />
  <D value="0" />
  <Tmin units="K" value="346.3" />
  <Tmax units="K" value="1000" />
  </VaporViscosity>
<LiquidThermalConductivity name="Liquid thermal conductivity" units="W/m/K">
  <eqno value="100" />
  <A value="0.22482" />
  <B value="-0.00019467" />
  <C value="0" />
  <D value="0" />
  <E value="0" />
  <Tmin units="K" value="346.3" />
  <Tmax units="K" value="660.35" />
  </LiquidThermalConductivity>
<VaporThermalConductivity name="Vapour thermal conductivity" units="W/m/K">
  <eqno value="102" />
  <A value="0.0001608" />
  <B value="0.9231" />
  <C value="793" />
  <D value="0" />
  <Tmin units="K" value="608.15" />
  <Tmax units="K" value="1000" />
  </VaporThermalConductivity>
<SurfaceTension name="Surface tension" units="N/m">
  <eqno value="106" />
  <A value="0.079729" />
  <B value="1.2567" />
  <C value="0" />
  <D value="0" />
  <E value="0" />
  <Tmin units="K" value="346.3" />
  <Tmax units="K" value="834" />
  </SurfaceTension>
<AntoineVaporPressure name="Antoine" units="Pa">
  <eqno value="10" />
  <A value="22.28697" />
  <B value="4016.057" />
  <C value="-46.63436" />
  <Tmin units="K" value="486.52" />
  <Tmax units="K" value="834" />
  </AntoineVaporPressure>
<FullerVolume name="Fuller et al. diffusion volume" units="_" value="244.97" />
<CostaldAcentricFactor name="SRK acentric factor" units="_" value="0.688847" />
<WilsonVolume name="Wilson volume" units="m3/kmol" value="0.202977" />
<UniquacR name="UNIQUAC r" units="_" value="8.429" />
<UniquacQ name="UNIQUAC q" units="_" value="6.216" />
<ChaoSeaderAcentricFactor name="Chao-Seader acentric factor" units="_" value="0.688847" />
<ChaoSeaderSolubilityParameter name="Chao-Seader solubility parameter" units="J0.5/m1.5" value="19900" />
<ChaoSeaderLiquidVolume name="Chao-Seader liquid volume" units="m3/kmol" value="0.202977" />
<UnifacVLE name="UNIFAC">
  <group id="1" value="2" />
  <group id="4" value="1" />
  <group id="10" value="9" />
  <group id="11" value="2" />
  <group id="18" value="1" />
  </UnifacVLE>
<UnifacLLE name="UNIFAC-LLE">
  <group id="1" value="2" />
  <group id="4" value="1" />
  <group id="9" value="9" />
  <group id="10" value="2" />
  <group id="18" value="1" />
  </UnifacLLE>
<Asog name="ASOG">
  <group id="1" value="2" />
  <group id="4" value="1" />
  <group id="10" value="9" />
  <group id="11" value="2" />
  <group id="16" value="1" />
  </Asog>
<GCmethod name="PPR78">
  <group id="1" value="2" />
  <group id="4" value="1" />
  <group id="7" value="9" />
  <group id="8" value="2" />
  </GCmethod>
<Umr name="UMR">
  <group id="1" value="2" />
  <group id="4" value="1" />
  <group id="10" value="9" />
  <group id="11" value="2" />
  <group id="18" value="1" />
  </Umr>
<ModifiedUnifac name="Modified UNIFAC">
  <group id="1" value="2" />
  <group id="4" value="1" />
  <group id="9" value="9" />
  <group id="10" value="2" />
  <group id="17" value="1" />
  </ModifiedUnifac>
<CAS name="CAS number" value="599-64-4" />
<Smiles name="SMILES" value="CC(C)(c1ccccc1)c2ccc(cc2)O" />
</compound>

