<compound>
<LibraryIndex name="Index" value="524" />
<CompoundID name="Name" value="p-cymene" />
<StructureFormula name="Structure" value="CH3(C6H4)CH(CH3)2" />
<Family name="Family" value="10" />
<CriticalTemperature name="Critical temperature" units="K" value="652" />
<CriticalPressure name="Critical pressure" units="Pa" value="2800000" />
<CriticalVolume name="Critical volume" units="m3/kmol" value="0.497" />
<CriticalCompressibility name="Critical compressibility factor" units="_" value="0.248" />
<NormalBoilingPointTemperature name="Normal boiling point" units="K" value="450.26" />
<NormalMeltingPointTemperature name="Melting point" units="K" value="205.25" />
<TriplePointTemperature name="Triple point temperature" units="K" value="205.25" />
<TriplePointPressure name="Triple point pressure" units="Pa" value="0.010391" />
<MolecularWeight name="Molecular weight" units="kg/kmol" value="134.2182" />
<LiquidVolumeAtNormalBoilingPoint name="Liquid molar volume at normal boiling point" units="m3/kmol" value="0.15749" />
<AcentricityFactor name="Acentric factor" units="_" value="0.376" />
<RadiusOfGyration name="Radius of gyration" units="m" value="4.557E-10" />
<SolubilityParameter name="Solubility parameter" units="J0.5/m1.5" value="17290" />
<DipoleMoment name="Dipole moment" units="Coulomb.m" value="0" />
<VanDerWaalsVolume name="Van der Waals volume" units="m3/kmol" value="0.09111" />
<VanDerWaalsArea name="Van der Waals area" units="m2/kmol" value="1.153E+09" />
<HeatOfFormation name="IG heat of formation" units="J/kmol" value="-2.799E+07" />
<GibbsEnergyOfFormation name="IG Gibbs energy of formation" units="J/kmol" value="1.3352E+08" />
<AbsEntropy name="IG absolute entropy" units="J/kmol/K" value="426400" />
<HeatOfFusionAtMeltingPoint name="Heat of fusion at melting point" units="J/kmol" value="9661000" />
<MatthiasCopemanC1 name="Mathias-Copeman C1" units="_" value="1.03611" />
<HeatOfCombustion name="Standard net heat of combustion LHV" units="J/kmol" value="-5.558E+09" />
<SolidDensity name="Solid density" units="kmol/m3">
  <eqno value="2" />
  <A value="8.7239" />
  <B value="-0.004728" />
  <C value="0" />
  <D value="0" />
  <E value="0" />
  <Tmin units="K" value="82.1" />
  <Tmax units="K" value="205.25" />
  </SolidDensity>
<LiquidDensity name="Liquid density" units="kmol/m3">
  <eqno value="105" />
  <A value="0.44838" />
  <B value="0.23842" />
  <C value="653.16" />
  <D value="0.26866" />
  <Tmin units="K" value="205.25" />
  <Tmax units="K" value="653.15" />
  </LiquidDensity>
<VaporPressure name="Vapour pressure" units="Pa">
  <eqno value="101" />
  <A value="130.8986" />
  <B value="-10357.88" />
  <C value="-16.09943" />
  <D value="9.850105E-06" />
  <E value="2" />
  <Tmin units="K" value="205.25" />
  <Tmax units="K" value="653.15" />
  </VaporPressure>
<HeatOfVaporization name="Heat of vaporization" units="J/kmol">
  <eqno value="106" />
  <A value="8.966039E+07" />
  <B value="1.950064" />
  <C value="-3.032433" />
  <D value="2.16162" />
  <E value="-0.588861" />
  <Tmin units="K" value="205.25" />
  <Tmax units="K" value="653.15" />
  </HeatOfVaporization>
<SolidHeatCapacityCp name="Solid heat capacity" units="J/kmol/K">
  <eqno value="100" />
  <A value="-68366" />
  <B value="2952.6" />
  <C value="-17.388" />
  <D value="0.036561" />
  <E value="0.000036293" />
  <Tmin units="K" value="90" />
  <Tmax units="K" value="205.25" />
  </SolidHeatCapacityCp>
<LiquidHeatCapacityCp name="Liquid heat capacity" units="J/kmol/K">
  <eqno value="16" />
  <A value="99148" />
  <B value="48.442" />
  <C value="10.281" />
  <D value="0.006034" />
  <E value="-0.0000045515" />
  <Tmin units="K" value="205.25" />
  <Tmax units="K" value="450.28" />
  </LiquidHeatCapacityCp>
<IdealGasHeatCapacityCp name="Ideal gas heat capacity" units="J/kmol/K">
  <eqno value="16" />
  <A value="119360" />
  <B value="-822.32" />
  <C value="13.841" />
  <D value="-0.00060036" />
  <E value="1.8085E-07" />
  <Tmin units="K" value="200" />
  <Tmax units="K" value="1500" />
  </IdealGasHeatCapacityCp>
<SecondVirialCoefficient name="Second virial coefficient" units="m3/kmol">
  <eqno value="104" />
  <A value="0.075714" />
  <B value="-202.54" />
  <C value="-126.35" />
  <D value="-27689" />
  <E value="28143" />
  <Tmin units="K" value="205.25" />
  <Tmax units="K" value="1500" />
  </SecondVirialCoefficient>
<LiquidViscosity name="Liquid viscosity" units="Pa.s">
  <eqno value="101" />
  <A value="-29.824" />
  <B value="1974.9" />
  <C value="2.8359" />
  <D value="-0.0000010565" />
  <E value="2" />
  <Tmin units="K" value="205.25" />
  <Tmax units="K" value="600" />
  </LiquidViscosity>
<VaporViscosity name="Vapour viscosity" units="Pa.s">
  <eqno value="102" />
  <A value="0.0000032148" />
  <B value="0.32014" />
  <C value="730.34" />
  <D value="10237" />
  <Tmin units="K" value="205.25" />
  <Tmax units="K" value="1000" />
  </VaporViscosity>
<LiquidThermalConductivity name="Liquid thermal conductivity" units="W/m/K">
  <eqno value="16" />
  <A value="0.018679" />
  <B value="-10.656" />
  <C value="-1.722" />
  <D value="-0.0015047" />
  <E value="-7.6885E-07" />
  <Tmin units="K" value="205.25" />
  <Tmax units="K" value="593.15" />
  </LiquidThermalConductivity>
<VaporThermalConductivity name="Vapour thermal conductivity" units="W/m/K">
  <eqno value="102" />
  <A value="0.00010761" />
  <B value="1.0275" />
  <C value="670.75" />
  <D value="67288" />
  <Tmin units="K" value="205.25" />
  <Tmax units="K" value="1000" />
  </VaporThermalConductivity>
<SurfaceTension name="Surface tension" units="N/m">
  <eqno value="16" />
  <A value="-0.040455" />
  <B value="32.653" />
  <C value="-2.5051" />
  <D value="-0.00081582" />
  <E value="-0.0000005747" />
  <Tmin units="K" value="205.25" />
  <Tmax units="K" value="628.49" />
  </SurfaceTension>
<RPPHeatCapacityCp name="Ideal gas heat capacity (RPP)" units="J/kmol/K">
  <eqno value="4" />
  <A value="-15629" />
  <B value="759.85" />
  <C value="-0.40811" />
  <D value="0.000080721" />
  <Tmin units="K" value="200" />
  <Tmax units="K" value="1500" />
  </RPPHeatCapacityCp>
<RelativeStaticPermittivity name="Relative static permittivity" units="_">
  <eqno value="120" />
  <A value="-1.756835" />
  <B value="-1150" />
  <C value="-6.9" />
  <Tmin units="K" value="271.3722" />
  <Tmax units="K" value="441.3722" />
  </RelativeStaticPermittivity>
<AntoineVaporPressure name="Antoine" units="Pa">
  <eqno value="10" />
  <A value="21.164" />
  <B value="3777.4" />
  <C value="-58.088" />
  <Tmin units="K" value="393.15" />
  <Tmax units="K" value="581.46" />
  </AntoineVaporPressure>
<LiquidViscosityRPS name="Liquid viscosity (RPS)" units="Pa.s">
  <eqno value="12" />
  <A value="-4.2286" />
  <B value="-0.0093756" />
  <Tmin units="K" value="205.25" />
  <Tmax units="K" value="522.53" />
  </LiquidViscosityRPS>
<COSTALDVolume name="COSTLD characteristic volume (V*)" units="m3/kmol" value="0.501549" />
<DiameterLJ name="Lennard Jones diameter" units="m" value="7.876896E-10" />
<EnergyLJ name="Lennard Jones energy" units="K" value="281.3111" />
<RacketParameter name="Rackett parameter" units="_" value="0.248" />
<FullerVolume name="Fuller et al. diffusion volume" units="_" value="173.04" />
<MatthiasCopemanC2 name="Mathias-Copeman C2" units="_" value="0" />
<Parachor name="Parachor" units="kg0.25.m3/s0.5/kmol" value="0.0641258" />
<SpecificGravity name="Specific gravity" units="_" value="0.860761" />
<Charge name="Charge" units="_" value="0" />
<CostaldAcentricFactor name="SRK acentric factor" units="_" value="0.376" />
<WilsonVolume name="Wilson volume" units="m3/kmol" value="0.15749" />
<UniquacR name="UNIQUAC r" units="_" value="6.0058" />
<UniquacQ name="UNIQUAC q" units="_" value="4.612" />
<ApiSrkS2 name="API-SRK s2" units="_" value="0.000849" />
<MatthiasCopemanC3 name="Mathias-Copeman C3" units="_" value="0" />
<ChaoSeaderAcentricFactor name="Chao-Seader acentric factor" units="_" value="0.376" />
<ChaoSeaderSolubilityParameter name="Chao-Seader solubility parameter" units="J0.5/m1.5" value="17290" />
<ChaoSeaderLiquidVolume name="Chao-Seader liquid volume" units="m3/kmol" value="0.15749" />
<UnifacVLE name="UNIFAC">
  <group id="1" value="2" />
  <group id="10" value="4" />
  <group id="12" value="1" />
  <group id="14" value="1" />
  </UnifacVLE>
<UnifacLLE name="UNIFAC-LLE">
  <group id="1" value="2" />
  <group id="9" value="4" />
  <group id="11" value="1" />
  <group id="13" value="1" />
  </UnifacLLE>
<Asog name="ASOG">
  <group id="1" value="3" />
  <group id="3" value="1" />
  <group id="10" value="4" />
  <group id="11" value="2" />
  </Asog>
<GCmethod name="PPR78">
  <group id="1" value="3" />
  <group id="7" value="4" />
  <group id="8" value="2" />
  <group id="3" value="1" />
  </GCmethod>
<Umr name="UMR">
  <group id="1" value="2" />
  <group id="10" value="4" />
  <group id="12" value="1" />
  <group id="14" value="1" />
  </Umr>
<ModifiedUnifac name="Modified UNIFAC">
  <group id="1" value="2" />
  <group id="9" value="4" />
  <group id="11" value="1" />
  <group id="13" value="1" />
  </ModifiedUnifac>
<CAS name="CAS number" value="99-87-6" />
<Smiles name="SMILES" value="c1(C(C)C)ccc(C)cc1" />
</compound>

