<compound>
<LibraryIndex name="Index" value="1779" />
<CompoundID name="Name" value="p-nitrotoluene" />
<StructureFormula name="Structure" value="C6H4(NO2)(CH3)" />
<Family name="Family" value="39" />
<CriticalTemperature name="Critical temperature" units="K" value="736" />
<CriticalPressure name="Critical pressure" units="Pa" value="3800000" />
<CriticalVolume name="Critical volume" units="m3/kmol" value="0.441" />
<CriticalCompressibility name="Critical compressibility factor" units="_" value="0.229" />
<NormalBoilingPointTemperature name="Normal boiling point" units="K" value="511.15" />
<NormalMeltingPointTemperature name="Melting point" units="K" value="325.05" />
<TriplePointTemperature name="Triple point temperature" units="K" value="324.75" />
<TriplePointPressure name="Triple point pressure" units="Pa" value="40.4829" />
<MolecularWeight name="Molecular weight" units="kg/kmol" value="137.136" />
<LiquidVolumeAtNormalBoilingPoint name="Liquid molar volume at normal boiling point" units="m3/kmol" value="0.121894" />
<AcentricityFactor name="Acentric factor" units="_" value="0.542405" />
<RadiusOfGyration name="Radius of gyration" units="m" value="4.371E-10" />
<SolubilityParameter name="Solubility parameter" units="J0.5/m1.5" value="21110" />
<DipoleMoment name="Dipole moment" units="Coulomb.m" value="1.48E-29" />
<VanDerWaalsVolume name="Van der Waals volume" units="m3/kmol" value="0.07379" />
<VanDerWaalsArea name="Van der Waals area" units="m2/kmol" value="9.27E+08" />
<HeatOfFormation name="IG heat of formation" units="J/kmol" value="3.1E+07" />
<GibbsEnergyOfFormation name="IG Gibbs energy of formation" units="J/kmol" value="1.554E+08" />
<AbsEntropy name="IG absolute entropy" units="J/kmol/K" value="380800" />
<HeatOfFusionAtMeltingPoint name="Heat of fusion at melting point" units="J/kmol" value="1.6676E+07" />
<MatthiasCopemanC1 name="Mathias-Copeman C1" units="_" value="1.178424" />
<HeatOfCombustion name="Standard net heat of combustion LHV" units="J/kmol" value="-3.553E+09" />
<SolidDensity name="Solid density" units="kmol/m3">
  <eqno value="2" />
  <A value="10.955" />
  <B value="-0.0051608" />
  <C value="0" />
  <D value="0" />
  <E value="0" />
  <Tmin units="K" value="273.15" />
  <Tmax units="K" value="324.75" />
  </SolidDensity>
<LiquidDensity name="Liquid density" units="kmol/m3">
  <eqno value="105" />
  <A value="0.76802" />
  <B value="0.27463" />
  <C value="736" />
  <D value="0.3126" />
  <Tmin units="K" value="320.15" />
  <Tmax units="K" value="720.99" />
  </LiquidDensity>
<VaporPressure name="Vapour pressure" units="Pa">
  <eqno value="101" />
  <A value="115.4618" />
  <B value="-11239.6" />
  <C value="-13.3636" />
  <D value="5.387653E-06" />
  <E value="2" />
  <Tmin units="K" value="324.75" />
  <Tmax units="K" value="743" />
  </VaporPressure>
<HeatOfVaporization name="Heat of vaporization" units="J/kmol">
  <eqno value="106" />
  <A value="1.550237E+08" />
  <B value="1.89329" />
  <C value="-1.014085" />
  <D value="-0.0168324" />
  <E value="-0.442436" />
  <Tmin units="K" value="324.75" />
  <Tmax units="K" value="720.99" />
  </HeatOfVaporization>
<SolidHeatCapacityCp name="Solid heat capacity" units="J/kmol/K">
  <eqno value="100" />
  <A value="8048.3" />
  <B value="609060" />
  <C value="-6008.8" />
  <D value="19.783" />
  <E value="-0.021716" />
  <Tmin units="K" value="298" />
  <Tmax units="K" value="307.65" />
  </SolidHeatCapacityCp>
<LiquidHeatCapacityCp name="Liquid heat capacity" units="J/kmol/K">
  <eqno value="16" />
  <A value="90280" />
  <B value="945.96" />
  <C value="3.9359" />
  <D value="0.019415" />
  <E value="-0.000013352" />
  <Tmin units="K" value="324.75" />
  <Tmax units="K" value="557.25" />
  </LiquidHeatCapacityCp>
<IdealGasHeatCapacityCp name="Ideal gas heat capacity" units="J/kmol/K">
  <eqno value="16" />
  <A value="126830" />
  <B value="-1053.5" />
  <C value="13.982" />
  <D value="-0.0011308" />
  <E value="3.2272E-07" />
  <Tmin units="K" value="273" />
  <Tmax units="K" value="1500" />
  </IdealGasHeatCapacityCp>
<SecondVirialCoefficient name="Second virial coefficient" units="m3/kmol">
  <eqno value="104" />
  <A value="0.3096" />
  <B value="-430.56" />
  <C value="-175.46" />
  <D value="-349500" />
  <E value="685920" />
  <Tmin units="K" value="371.5" />
  <Tmax units="K" value="1500" />
  </SecondVirialCoefficient>
<LiquidViscosity name="Liquid viscosity" units="Pa.s">
  <eqno value="101" />
  <A value="-164.01" />
  <B value="7455.2" />
  <C value="23.73" />
  <D value="-0.000026464" />
  <E value="2" />
  <Tmin units="K" value="320.15" />
  <Tmax units="K" value="594.4" />
  </LiquidViscosity>
<VaporViscosity name="Vapour viscosity" units="Pa.s">
  <eqno value="102" />
  <A value="4.1207E-08" />
  <B value="0.91154" />
  <C value="64.997" />
  <D value="-92.66" />
  <Tmin units="K" value="324.75" />
  <Tmax units="K" value="1000" />
  </VaporViscosity>
<LiquidThermalConductivity name="Liquid thermal conductivity" units="W/m/K">
  <eqno value="16" />
  <A value="-0.1404" />
  <B value="23.385" />
  <C value="-1.2743" />
  <D value="-0.000067534" />
  <E value="-5.8708E-07" />
  <Tmin units="K" value="220.8" />
  <Tmax units="K" value="580.8" />
  </LiquidThermalConductivity>
<VaporThermalConductivity name="Vapour thermal conductivity" units="W/m/K">
  <eqno value="102" />
  <A value="0.000064675" />
  <B value="1.0353" />
  <C value="391.41" />
  <D value="37904" />
  <Tmin units="K" value="274" />
  <Tmax units="K" value="1000" />
  </VaporThermalConductivity>
<SurfaceTension name="Surface tension" units="N/m">
  <eqno value="16" />
  <A value="-0.017488" />
  <B value="-28.223" />
  <C value="-2.4034" />
  <D value="-0.00054634" />
  <E value="-0.0000022569" />
  <Tmin units="K" value="324.75" />
  <Tmax units="K" value="720.99" />
  </SurfaceTension>
<RPPHeatCapacityCp name="Ideal gas heat capacity (RPP)" units="J/kmol/K">
  <eqno value="4" />
  <A value="13539" />
  <B value="550.05" />
  <C value="-0.32279" />
  <D value="0.000069576" />
  <Tmin units="K" value="273" />
  <Tmax units="K" value="1500" />
  </RPPHeatCapacityCp>
<RelativeStaticPermittivity name="Relative static permittivity" units="_">
  <eqno value="120" />
  <A value="-21.94037" />
  <B value="-10000" />
  <C value="-66.6" />
  <Tmin units="K" value="274.15" />
  <Tmax units="K" value="444.15" />
  </RelativeStaticPermittivity>
<AntoineVaporPressure name="Antoine" units="Pa">
  <eqno value="10" />
  <A value="21.068" />
  <B value="4086.9" />
  <C value="-83.592" />
  <Tmin units="K" value="445" />
  <Tmax units="K" value="654.95" />
  </AntoineVaporPressure>
<LiquidViscosityRPS name="Liquid viscosity (RPS)" units="Pa.s">
  <eqno value="12" />
  <A value="-3.6317" />
  <B value="-0.0093276" />
  <Tmin units="K" value="320.15" />
  <Tmax units="K" value="594.4" />
  </LiquidViscosityRPS>
<COSTALDVolume name="COSTLD characteristic volume (V*)" units="m3/kmol" value="0.398619" />
<DiameterLJ name="Lennard Jones diameter" units="m" value="8.328918E-10" />
<EnergyLJ name="Lennard Jones energy" units="K" value="238.341" />
<RacketParameter name="Rackett parameter" units="_" value="0.24705" />
<FullerVolume name="Fuller et al. diffusion volume" units="_" value="107.72" />
<MatthiasCopemanC2 name="Mathias-Copeman C2" units="_" value="0" />
<Parachor name="Parachor" units="kg0.25.m3/s0.5/kmol" value="0.054156" />
<SpecificGravity name="Specific gravity" units="_" value="1.050112" />
<Charge name="Charge" units="_" value="0" />
<CostaldAcentricFactor name="SRK acentric factor" units="_" value="0.542405" />
<WilsonVolume name="Wilson volume" units="m3/kmol" value="0.121894" />
<UniquacR name="UNIQUAC r" units="_" value="4.2801" />
<UniquacQ name="UNIQUAC q" units="_" value="3.272" />
<MatthiasCopemanC3 name="Mathias-Copeman C3" units="_" value="0" />
<ChaoSeaderAcentricFactor name="Chao-Seader acentric factor" units="_" value="0.425222" />
<ChaoSeaderSolubilityParameter name="Chao-Seader solubility parameter" units="J0.5/m1.5" value="21110" />
<ChaoSeaderLiquidVolume name="Chao-Seader liquid volume" units="m3/kmol" value="0.121894" />
<UnifacVLE name="UNIFAC">
  <group id="10" value="4" />
  <group id="12" value="1" />
  <group id="58" value="1" />
  </UnifacVLE>
<UnifacLLE name="UNIFAC-LLE">
  <group id="9" value="4" />
  <group id="11" value="1" />
  <group id="47" value="1" />
  </UnifacLLE>
<Asog name="ASOG">
  <group id="1" value="1" />
  <group id="10" value="4" />
  <group id="11" value="2" />
  <group id="34" value="1" />
  </Asog>
<Umr name="UMR">
  <group id="10" value="4" />
  <group id="12" value="1" />
  <group id="58" value="1" />
  </Umr>
<ModifiedUnifac name="Modified UNIFAC">
  <group id="9" value="4" />
  <group id="11" value="1" />
  <group id="57" value="1" />
  </ModifiedUnifac>
<CAS name="CAS number" value="99-99-0" />
<Smiles name="SMILES" value="c1(C)ccc(N(=O)=O)cc1" />
</compound>

