<compound>
<LibraryIndex name="Index" value="3" />
<CompoundID name="Name" value="propane" />
<StructureFormula name="Structure" value="CH3CH2CH3" />
<Family name="Family" value="1" />
<CriticalTemperature name="Critical temperature" units="K" value="369.83" />
<CriticalPressure name="Critical pressure" units="Pa" value="4248000" />
<CriticalVolume name="Critical volume" units="m3/kmol" value="0.2" />
<CriticalCompressibility name="Critical compressibility factor" units="_" value="0.276" />
<NormalBoilingPointTemperature name="Normal boiling point" units="K" value="231.02" />
<NormalMeltingPointTemperature name="Melting point" units="K" value="85.47" />
<TriplePointTemperature name="Triple point temperature" units="K" value="85.47" />
<TriplePointPressure name="Triple point pressure" units="Pa" value="0.0001685" />
<MolecularWeight name="Molecular weight" units="kg/kmol" value="44.09562" />
<LiquidVolumeAtNormalBoilingPoint name="Liquid molar volume at normal boiling point" units="m3/kmol" value="0.07487" />
<AcentricityFactor name="Acentric factor" units="_" value="0.152" />
<RadiusOfGyration name="Radius of gyration" units="m" value="2.431E-10" />
<SolubilityParameter name="Solubility parameter" units="J0.5/m1.5" value="13100" />
<DipoleMoment name="Dipole moment" units="Coulomb.m" value="0" />
<VanDerWaalsVolume name="Van der Waals volume" units="m3/kmol" value="0.03757" />
<VanDerWaalsArea name="Van der Waals area" units="m2/kmol" value="5.59E+08" />
<HeatOfFormation name="IG heat of formation" units="J/kmol" value="-1.0468E+08" />
<GibbsEnergyOfFormation name="IG Gibbs energy of formation" units="J/kmol" value="-2.439E+07" />
<AbsEntropy name="IG absolute entropy" units="J/kmol/K" value="270200" />
<HeatOfFusionAtMeltingPoint name="Heat of fusion at melting point" units="J/kmol" value="3524000" />
<MatthiasCopemanC1 name="Mathias-Copeman C1" units="_" value="0.75108" />
<HeatOfCombustion name="Standard net heat of combustion LHV" units="J/kmol" value="-2.04311E+09" />
<SolidDensity name="Solid density" units="kmol/m3">
  <eqno value="2" />
  <A value="18.861" />
  <B value="-0.020332" />
  <Tmin units="K" value="23.15" />
  <Tmax units="K" value="85.48" />
  </SolidDensity>
<LiquidDensity name="Liquid density" units="kmol/m3">
  <eqno value="105" />
  <A value="1.3186" />
  <B value="0.27005" />
  <C value="369.86" />
  <D value="0.27852" />
  <Tmin units="K" value="85.47" />
  <Tmax units="K" value="369.85" />
  </LiquidDensity>
<VaporPressure name="Vapour pressure" units="Pa">
  <eqno value="101" />
  <A value="55.2725" />
  <B value="-3396.946" />
  <C value="-5.423393" />
  <D value="8.953731E-06" />
  <E value="2" />
  <Tmin units="K" value="85.47" />
  <Tmax units="K" value="371.25" />
  </VaporPressure>
<HeatOfVaporization name="Heat of vaporization" units="J/kmol">
  <eqno value="106" />
  <A value="3.0459E+07" />
  <B value="1.2001" />
  <C value="-2.1107" />
  <D value="1.9732" />
  <E value="-0.65316" />
  <Tmin units="K" value="85.44" />
  <Tmax units="K" value="369.85" />
  </HeatOfVaporization>
<SolidHeatCapacityCp name="Solid heat capacity" units="J/kmol/K">
  <eqno value="100" />
  <A value="-9928.1" />
  <B value="957.89" />
  <C value="-0.77533" />
  <D value="-0.03376" />
  <E value="0.00014632" />
  <Tmin units="K" value="30" />
  <Tmax units="K" value="84" />
  </SolidHeatCapacityCp>
<LiquidHeatCapacityCp name="Liquid heat capacity" units="J/kmol/K">
  <eqno value="16" />
  <A value="87486" />
  <B value="-13371" />
  <C value="156.92" />
  <D value="-0.5459" />
  <E value="0.00068504" />
  <Tmin units="K" value="85.47" />
  <Tmax units="K" value="360" />
  </LiquidHeatCapacityCp>
<IdealGasHeatCapacityCp name="Ideal gas heat capacity" units="J/kmol/K">
  <eqno value="16" />
  <A value="37840.4" />
  <B value="-445.5789" />
  <C value="11.83871" />
  <D value="0.000653764" />
  <E value="-2.200137E-07" />
  <Tmin units="K" value="80" />
  <Tmax units="K" value="1500" />
  </IdealGasHeatCapacityCp>
<SecondVirialCoefficient name="Second virial coefficient" units="m3/kmol">
  <eqno value="104" />
  <A value="0.12162" />
  <B value="-107.8" />
  <C value="-3.8081" />
  <D value="-15.233" />
  <E value="-13.005" />
  <Tmin units="K" value="122" />
  <Tmax units="K" value="1849.1" />
  </SecondVirialCoefficient>
<LiquidViscosity name="Liquid viscosity" units="Pa.s">
  <eqno value="101" />
  <A value="-35.23159" />
  <B value="966.1472" />
  <C value="4.395026" />
  <D value="-0.0000255079" />
  <E value="2" />
  <Tmin units="K" value="85.47" />
  <Tmax units="K" value="363.15" />
  </LiquidViscosity>
<VaporViscosity name="Vapour viscosity" units="Pa.s">
  <eqno value="102" />
  <A value="4.7422E-08" />
  <B value="0.90416" />
  <C value="-4.7484" />
  <D value="478.57" />
  <Tmin units="K" value="85.47" />
  <Tmax units="K" value="1000" />
  </VaporViscosity>
<LiquidThermalConductivity name="Liquid thermal conductivity" units="W/m/K">
  <eqno value="16" />
  <A value="0.02937" />
  <B value="-16.323" />
  <C value="-1.3313" />
  <D value="-0.0012596" />
  <E value="-0.000011206" />
  <Tmin units="K" value="85.47" />
  <Tmax units="K" value="350" />
  </LiquidThermalConductivity>
<VaporThermalConductivity name="Vapour thermal conductivity" units="W/m/K">
  <eqno value="102" />
  <A value="-1.139" />
  <B value="0.10904" />
  <C value="-9898.6" />
  <D value="-7669600" />
  <Tmin units="K" value="85.47" />
  <Tmax units="K" value="1000" />
  </VaporThermalConductivity>
<SurfaceTension name="Surface tension" units="N/m">
  <eqno value="16" />
  <A value="-0.0093557" />
  <B value="17.245" />
  <C value="-3.1909" />
  <D value="0.00024043" />
  <E value="-0.000011944" />
  <Tmin units="K" value="85.44" />
  <Tmax units="K" value="369.98" />
  </SurfaceTension>
<RPPHeatCapacityCp name="Ideal gas heat capacity (RPP)" units="J/kmol/K">
  <eqno value="100" />
  <A value="31986" />
  <B value="42.662" />
  <C value="0.49978" />
  <D value="-0.00065626" />
  <E value="0.000000256" />
  <Tmin units="K" value="50" />
  <Tmax units="K" value="1000" />
  </RPPHeatCapacityCp>
<RelativeStaticPermittivity name="Relative static permittivity" units="_">
  <eqno value="120" />
  <A value="-1.381181" />
  <B value="-800" />
  <C value="-4.8" />
  <Tmin units="K" value="254.15" />
  <Tmax units="K" value="424.15" />
  </RelativeStaticPermittivity>
<AntoineVaporPressure name="Antoine" units="Pa">
  <eqno value="10" />
  <A value="21.04" />
  <B value="2072.9" />
  <C value="-13.18" />
  <Tmin units="K" value="222" />
  <Tmax units="K" value="332.05" />
  </AntoineVaporPressure>
<LiquidViscosityRPS name="Liquid viscosity (RPS)" units="Pa.s">
  <eqno value="13" />
  <A value="-2.343" />
  <B value="-0.040027" />
  <C value="0.00005517" />
  <Tmin units="K" value="85.47" />
  <Tmax units="K" value="363.15" />
  </LiquidViscosityRPS>
<COSTALDVolume name="COSTLD characteristic volume (V*)" units="m3/kmol" value="0.20008" />
<DiameterLJ name="Lennard Jones diameter" units="m" value="5.114825E-10" />
<EnergyLJ name="Lennard Jones energy" units="K" value="234.5244" />
<RacketParameter name="Rackett parameter" units="_" value="0.2763" />
<FullerVolume name="Fuller et al. diffusion volume" units="_" value="66.17999" />
<MatthiasCopemanC2 name="Mathias-Copeman C2" units="_" value="-0.31941" />
<Parachor name="Parachor" units="kg0.25.m3/s0.5/kmol" value="0.0268" />
<SpecificGravity name="Specific gravity" units="_" value="0.506678" />
<Charge name="Charge" units="_" value="0" />
<CostaldAcentricFactor name="SRK acentric factor" units="_" value="0.1532" />
<WilsonVolume name="Wilson volume" units="m3/kmol" value="0.0757055" />
<UniquacR name="UNIQUAC r" units="_" value="2.4766" />
<UniquacQ name="UNIQUAC q" units="_" value="2.236" />
<UniquacQP name="UNIQUAC q'" units="_" value="2.236" />
<ApiSrkS2 name="API-SRK s2" units="_" value="-0.003791" />
<MatthiasCopemanC3 name="Mathias-Copeman C3" units="_" value="0.59617" />
<ChaoSeaderAcentricFactor name="Chao-Seader acentric factor" units="_" value="0.1538" />
<ChaoSeaderSolubilityParameter name="Chao-Seader solubility parameter" units="J0.5/m1.5" value="13091.2" />
<ChaoSeaderLiquidVolume name="Chao-Seader liquid volume" units="m3/kmol" value="0.084" />
<UnifacVLE name="UNIFAC">
  <group id="1" value="2" />
  <group id="2" value="1" />
  </UnifacVLE>
<UnifacLLE name="UNIFAC-LLE">
  <group id="1" value="2" />
  <group id="2" value="1" />
  </UnifacLLE>
<Asog name="ASOG">
  <group id="1" value="2" />
  <group id="2" value="1" />
  </Asog>
<GCmethod name="PPR78">
  <group id="1" value="2" />
  <group id="2" value="1" />
  </GCmethod>
<Umr name="UMR">
  <group id="1" value="2" />
  <group id="2" value="1" />
  </Umr>
<ModifiedUnifac name="Modified UNIFAC">
  <group id="1" value="2" />
  <group id="2" value="1" />
  </ModifiedUnifac>
<CAS name="CAS number" value="74-98-6" />
<Smiles name="SMILES" value="CCC" />
</compound>

