<compound>
<LibraryIndex name="Index" value="1003" />
<CompoundID name="Name" value="propanal" />
<StructureFormula name="Structure" value="CH3CH2CHO" />
<Family name="Family" value="25" />
<CriticalTemperature name="Critical temperature" units="K" value="493.15" />
<CriticalPressure name="Critical pressure" units="Pa" value="4650000" />
<CriticalVolume name="Critical volume" units="m3/kmol" value="0.223" />
<CriticalCompressibility name="Critical compressibility factor" units="_" value="0.239" />
<NormalBoilingPointTemperature name="Normal boiling point" units="K" value="321.15" />
<NormalMeltingPointTemperature name="Melting point" units="K" value="193.15" />
<TriplePointTemperature name="Triple point temperature" units="K" value="170" />
<TriplePointPressure name="Triple point pressure" units="Pa" value="1.31328" />
<MolecularWeight name="Molecular weight" units="kg/kmol" value="58.07914" />
<LiquidVolumeAtNormalBoilingPoint name="Liquid molar volume at normal boiling point" units="m3/kmol" value="0.0734076" />
<AcentricityFactor name="Acentric factor" units="_" value="0.330077" />
<RadiusOfGyration name="Radius of gyration" units="m" value="2.6241E-10" />
<SolubilityParameter name="Solubility parameter" units="J0.5/m1.5" value="19320" />
<DipoleMoment name="Dipole moment" units="Coulomb.m" value="8.41E-30" />
<VanDerWaalsVolume name="Van der Waals volume" units="m3/kmol" value="0.03904" />
<VanDerWaalsArea name="Van der Waals area" units="m2/kmol" value="5.84E+08" />
<HeatOfFormation name="IG heat of formation" units="J/kmol" value="-1.874E+08" />
<GibbsEnergyOfFormation name="IG Gibbs energy of formation" units="J/kmol" value="-1.244E+08" />
<AbsEntropy name="IG absolute entropy" units="J/kmol/K" value="304700" />
<HeatOfFusionAtMeltingPoint name="Heat of fusion at melting point" units="J/kmol" value="8580000" />
<MatthiasCopemanC1 name="Mathias-Copeman C1" units="_" value="0.97" />
<HeatOfCombustion name="Standard net heat of combustion LHV" units="J/kmol" value="-1.6857E+09" />
<SolidDensity name="Solid density" units="kmol/m3">
  <eqno value="2" />
  <A value="20.081" />
  <B value="-0.012081" />
  <C value="0" />
  <D value="0" />
  <E value="0" />
  <Tmin units="K" value="68" />
  <Tmax units="K" value="193.15" />
  </SolidDensity>
<LiquidDensity name="Liquid density" units="kmol/m3">
  <eqno value="105" />
  <A value="0.81482" />
  <B value="0.2126" />
  <C value="493.15" />
  <D value="0.21277" />
  <Tmin units="K" value="170" />
  <Tmax units="K" value="492.98" />
  </LiquidDensity>
<VaporPressure name="Vapour pressure" units="Pa">
  <eqno value="101" />
  <A value="110.8631" />
  <B value="-6856.828" />
  <C value="-13.8218" />
  <D value="0.0000173391" />
  <E value="2" />
  <Tmin units="K" value="170" />
  <Tmax units="K" value="504.4" />
  </VaporPressure>
<HeatOfVaporization name="Heat of vaporization" units="J/kmol">
  <eqno value="106" />
  <A value="6.196909E+07" />
  <B value="1.837694" />
  <C value="-1.953499" />
  <D value="-0.000443949" />
  <E value="0.620394" />
  <Tmin units="K" value="170" />
  <Tmax units="K" value="486.8" />
  </HeatOfVaporization>
<SolidHeatCapacityCp name="Solid heat capacity" units="J/kmol/K">
  <eqno value="1" />
  <A value="91450" />
  <Tmin units="K" value="0" />
  <Tmax units="K" value="493.15" />
  </SolidHeatCapacityCp>
<LiquidHeatCapacityCp name="Liquid heat capacity" units="J/kmol/K">
  <eqno value="16" />
  <A value="116710" />
  <B value="75.622" />
  <C value="5.752" />
  <D value="0.010877" />
  <E value="0.0000042986" />
  <Tmin units="K" value="200" />
  <Tmax units="K" value="350.28" />
  </LiquidHeatCapacityCp>
<IdealGasHeatCapacityCp name="Ideal gas heat capacity" units="J/kmol/K">
  <eqno value="16" />
  <A value="-181030" />
  <B value="9.3832" />
  <C value="12.233" />
  <D value="0.00079415" />
  <E value="-2.4738E-07" />
  <Tmin units="K" value="200" />
  <Tmax units="K" value="1500" />
  </IdealGasHeatCapacityCp>
<SecondVirialCoefficient name="Second virial coefficient" units="m3/kmol">
  <eqno value="104" />
  <A value="0.12887" />
  <B value="-136.56" />
  <C value="-21.224" />
  <D value="-4367.6" />
  <E value="283.41" />
  <Tmin units="K" value="286.25" />
  <Tmax units="K" value="1500" />
  </SecondVirialCoefficient>
<LiquidViscosity name="Liquid viscosity" units="Pa.s">
  <eqno value="101" />
  <A value="-10.033" />
  <B value="843.41" />
  <C value="-0.14954" />
  <D value="3.8846E-08" />
  <E value="2" />
  <Tmin units="K" value="170" />
  <Tmax units="K" value="400" />
  </LiquidViscosity>
<VaporViscosity name="Vapour viscosity" units="Pa.s">
  <eqno value="102" />
  <A value="1.9173E-07" />
  <B value="0.71905" />
  <C value="111.91" />
  <D value="4618.1" />
  <Tmin units="K" value="170" />
  <Tmax units="K" value="1000" />
  </VaporViscosity>
<LiquidThermalConductivity name="Liquid thermal conductivity" units="W/m/K">
  <eqno value="16" />
  <A value="0.020248" />
  <B value="-83.587" />
  <C value="-0.55331" />
  <D value="-0.0042681" />
  <E value="0.0000015626" />
  <Tmin units="K" value="170" />
  <Tmax units="K" value="453.15" />
  </LiquidThermalConductivity>
<VaporThermalConductivity name="Vapour thermal conductivity" units="W/m/K">
  <eqno value="102" />
  <A value="776.87" />
  <B value="0.94095" />
  <C value="4.8356E+09" />
  <D value="-1.3358E+11" />
  <Tmin units="K" value="170" />
  <Tmax units="K" value="1000" />
  </VaporThermalConductivity>
<SurfaceTension name="Surface tension" units="N/m">
  <eqno value="16" />
  <A value="-0.037283" />
  <B value="-60.689" />
  <C value="-1.5611" />
  <D value="-0.0040346" />
  <E value="0.0000015379" />
  <Tmin units="K" value="170" />
  <Tmax units="K" value="486.8" />
  </SurfaceTension>
<RPPHeatCapacityCp name="Ideal gas heat capacity (RPP)" units="J/kmol/K">
  <eqno value="4" />
  <A value="34187" />
  <B value="159.05" />
  <C value="0.0057665" />
  <D value="-0.000022543" />
  <Tmin units="K" value="200" />
  <Tmax units="K" value="1500" />
  </RPPHeatCapacityCp>
<AntoineVaporPressure name="Antoine" units="Pa">
  <eqno value="10" />
  <A value="21.208" />
  <B value="2686.9" />
  <C value="-43.655" />
  <Tmin units="K" value="296.75" />
  <Tmax units="K" value="434" />
  </AntoineVaporPressure>
<LiquidViscosityRPS name="Liquid viscosity (RPS)" units="Pa.s">
  <eqno value="12" />
  <A value="-3.7237" />
  <B value="-0.014511" />
  <Tmin units="K" value="170" />
  <Tmax units="K" value="321.15" />
  </LiquidViscosityRPS>
<COSTALDVolume name="COSTLD characteristic volume (V*)" units="m3/kmol" value="0.20696" />
<DiameterLJ name="Lennard Jones diameter" units="m" value="6.303801E-10" />
<EnergyLJ name="Lennard Jones energy" units="K" value="186.2621" />
<RacketParameter name="Rackett parameter" units="_" value="0.239" />
<FullerVolume name="Fuller et al. diffusion volume" units="_" value="67.67" />
<MatthiasCopemanC2 name="Mathias-Copeman C2" units="_" value="0" />
<Parachor name="Parachor" units="kg0.25.m3/s0.5/kmol" value="0.0279786" />
<SpecificGravity name="Specific gravity" units="_" value="0.804475" />
<Charge name="Charge" units="_" value="0" />
<CostaldAcentricFactor name="SRK acentric factor" units="_" value="0.330077" />
<WilsonVolume name="Wilson volume" units="m3/kmol" value="0.0734076" />
<UniquacR name="UNIQUAC r" units="_" value="2.5735" />
<UniquacQ name="UNIQUAC q" units="_" value="2.336" />
<MatthiasCopemanC3 name="Mathias-Copeman C3" units="_" value="0" />
<ChaoSeaderAcentricFactor name="Chao-Seader acentric factor" units="_" value="0.255909" />
<ChaoSeaderSolubilityParameter name="Chao-Seader solubility parameter" units="J0.5/m1.5" value="19320" />
<ChaoSeaderLiquidVolume name="Chao-Seader liquid volume" units="m3/kmol" value="0.0734076" />
<UnifacVLE name="UNIFAC">
  <group id="1" value="1" />
  <group id="2" value="1" />
  <group id="21" value="1" />
  </UnifacVLE>
<UnifacLLE name="UNIFAC-LLE">
  <group id="1" value="1" />
  <group id="2" value="1" />
  <group id="21" value="1" />
  </UnifacLLE>
<Asog name="ASOG">
  <group id="1" value="1" />
  <group id="2" value="1" />
  <group id="20" value="1" />
  </Asog>
<Umr name="UMR">
  <group id="1" value="1" />
  <group id="2" value="1" />
  <group id="21" value="1" />
  </Umr>
<ModifiedUnifac name="Modified UNIFAC">
  <group id="1" value="1" />
  <group id="2" value="1" />
  <group id="20" value="1" />
  </ModifiedUnifac>
<CAS name="CAS number" value="123-38-6" />
<Smiles name="SMILES" value="CCC=O" />
</compound>

