<compound>
<LibraryIndex name="Index" value="1897" />
<CompoundID name="Name" value="propylene glycol monomethyl ether acetate" />
<StructureFormula name="Structure" value="CH3OCH2CH(CH3)OOCCH3" />
<Family name="Family" value="44" />
<CriticalTemperature name="Critical temperature" units="K" value="597.6" />
<CriticalPressure name="Critical pressure" units="Pa" value="3009000" />
<CriticalVolume name="Critical volume" units="m3/kmol" value="0.409" />
<CriticalCompressibility name="Critical compressibility factor" units="_" value="0.255" />
<NormalBoilingPointTemperature name="Normal boiling point" units="K" value="418.65" />
<NormalMeltingPointTemperature name="Melting point" units="K" value="205" />
<TriplePointTemperature name="Triple point temperature" units="K" value="205" />
<TriplePointPressure name="Triple point pressure" units="Pa" value="0.0417547" />
<MolecularWeight name="Molecular weight" units="kg/kmol" value="132.158" />
<LiquidVolumeAtNormalBoilingPoint name="Liquid molar volume at normal boiling point" units="m3/kmol" value="0.137028" />
<AcentricityFactor name="Acentric factor" units="_" value="0.480735" />
<RadiusOfGyration name="Radius of gyration" units="m" value="4.447E-10" />
<SolubilityParameter name="Solubility parameter" units="J0.5/m1.5" value="18310" />
<DipoleMoment name="Dipole moment" units="Coulomb.m" value="6.0E-30" />
<VanDerWaalsVolume name="Van der Waals volume" units="m3/kmol" value="0.07692" />
<VanDerWaalsArea name="Van der Waals area" units="m2/kmol" value="1.108E+09" />
<HeatOfFormation name="IG heat of formation" units="J/kmol" value="-6.148E+08" />
<GibbsEnergyOfFormation name="IG Gibbs energy of formation" units="J/kmol" value="-4.248E+08" />
<AbsEntropy name="IG absolute entropy" units="J/kmol/K" value="488300" />
<HeatOfCombustion name="Standard net heat of combustion LHV" units="J/kmol" value="-3.149E+09" />
<SolidDensity name="Solid density" units="kmol/m3">
  <eqno value="100" />
  <A value="10.223" />
  <B value="-0.0062336" />
  <C value="0" />
  <D value="0" />
  <E value="0" />
  <Tmin units="K" value="82" />
  <Tmax units="K" value="205" />
  </SolidDensity>
<LiquidDensity name="Liquid density" units="kmol/m3">
  <eqno value="105" />
  <A value="0.60529" />
  <B value="0.25482" />
  <C value="597.9" />
  <D value="0.28571" />
  <Tmin units="K" value="205" />
  <Tmax units="K" value="597.9" />
  </LiquidDensity>
<VaporPressure name="Vapour pressure" units="Pa">
  <eqno value="101" />
  <A value="88.727" />
  <B value="-8409.6" />
  <C value="-9.5943" />
  <D value="0.0000045223" />
  <E value="2" />
  <Tmin units="K" value="205" />
  <Tmax units="K" value="597.9" />
  </VaporPressure>
<HeatOfVaporization name="Heat of vaporization" units="J/kmol">
  <eqno value="106" />
  <A value="6.3229E+07" />
  <B value="0.38609" />
  <C value="0" />
  <D value="0" />
  <E value="0" />
  <Tmin units="K" value="205" />
  <Tmax units="K" value="597.9" />
  </HeatOfVaporization>
<LiquidHeatCapacityCp name="Liquid heat capacity" units="J/kmol/K">
  <eqno value="100" />
  <A value="101070" />
  <B value="290.07" />
  <C value="0.48936" />
  <D value="0" />
  <E value="0" />
  <Tmin units="K" value="298.95" />
  <Tmax units="K" value="448.42" />
  </LiquidHeatCapacityCp>
<IdealGasHeatCapacityCp name="Ideal gas heat capacity" units="J/kmol/K">
  <eqno value="16" />
  <A value="85000" />
  <B value="-500" />
  <C value="13.02416" />
  <D value="0" />
  <E value="0" />
  <Tmin units="K" value="255" />
  <Tmax units="K" value="1500" />
  </IdealGasHeatCapacityCp>
<SecondVirialCoefficient name="Second virial coefficient" units="m3/kmol">
  <eqno value="104" />
  <A value="0.2831" />
  <B value="-309.68" />
  <C value="-7.4165E+07" />
  <D value="-2.5661E+20" />
  <E value="2.9658E+22" />
  <Tmin units="K" value="298.95" />
  <Tmax units="K" value="1500" />
  </SecondVirialCoefficient>
<LiquidViscosity name="Liquid viscosity" units="Pa.s">
  <eqno value="101" />
  <A value="-12.452" />
  <B value="1688.3" />
  <C value="-0.011078" />
  <D value="0" />
  <E value="0" />
  <Tmin units="K" value="205" />
  <Tmax units="K" value="418.65" />
  </LiquidViscosity>
<VaporViscosity name="Vapour viscosity" units="Pa.s">
  <eqno value="102" />
  <A value="8.7294E-08" />
  <B value="0.80139" />
  <C value="82.11" />
  <D value="0" />
  <Tmin units="K" value="205" />
  <Tmax units="K" value="1000" />
  </VaporViscosity>
<LiquidThermalConductivity name="Liquid thermal conductivity" units="W/m/K">
  <eqno value="100" />
  <A value="0.1969" />
  <B value="-0.0002334" />
  <C value="0" />
  <D value="0" />
  <E value="0" />
  <Tmin units="K" value="205" />
  <Tmax units="K" value="418.65" />
  </LiquidThermalConductivity>
<VaporThermalConductivity name="Vapour thermal conductivity" units="W/m/K">
  <eqno value="102" />
  <A value="0.00021077" />
  <B value="0.90834" />
  <C value="670.62" />
  <D value="0" />
  <Tmin units="K" value="418.65" />
  <Tmax units="K" value="1000" />
  </VaporThermalConductivity>
<SurfaceTension name="Surface tension" units="N/m">
  <eqno value="106" />
  <A value="0.064266" />
  <B value="1.272" />
  <C value="0" />
  <D value="0" />
  <E value="0" />
  <Tmin units="K" value="205" />
  <Tmax units="K" value="597.9" />
  </SurfaceTension>
<AntoineVaporPressure name="Antoine" units="Pa">
  <eqno value="10" />
  <A value="22.28487" />
  <B value="4014.591" />
  <C value="-46.69442" />
  <Tmin units="K" value="334.92" />
  <Tmax units="K" value="597.6" />
  </AntoineVaporPressure>
<FullerVolume name="Fuller et al. diffusion volume" units="_" value="141.45" />
<Charge name="Charge" units="_" value="0" />
<CostaldAcentricFactor name="SRK acentric factor" units="_" value="0.480735" />
<WilsonVolume name="Wilson volume" units="m3/kmol" value="0.137028" />
<UniquacR name="UNIQUAC r" units="_" value="5.0705" />
<UniquacQ name="UNIQUAC q" units="_" value="4.432" />
<ChaoSeaderAcentricFactor name="Chao-Seader acentric factor" units="_" value="0.480735" />
<ChaoSeaderSolubilityParameter name="Chao-Seader solubility parameter" units="J0.5/m1.5" value="18310" />
<ChaoSeaderLiquidVolume name="Chao-Seader liquid volume" units="m3/kmol" value="0.137028" />
<UnifacVLE name="UNIFAC">
  <group id="1" value="1" />
  <group id="2" value="1" />
  <group id="3" value="1" />
  <group id="22" value="1" />
  <group id="25" value="1" />
  </UnifacVLE>
<UnifacLLE name="UNIFAC-LLE">
  <group id="1" value="1" />
  <group id="2" value="1" />
  <group id="3" value="1" />
  <group id="25" value="1" />
  <group id="27" value="1" />
  </UnifacLLE>
<Asog name="ASOG">
  <group id="1" value="1" />
  <group id="2" value="1" />
  <group id="3" value="1" />
  <group id="22" value="1" />
  <group id="19" value="1" />
  </Asog>
<GCmethod name="PPR78">
  <group id="1" value="1" />
  <group id="2" value="1" />
  <group id="3" value="1" />
  </GCmethod>
<Umr name="UMR">
  <group id="1" value="1" />
  <group id="2" value="1" />
  <group id="3" value="1" />
  <group id="22" value="1" />
  <group id="25" value="1" />
  </Umr>
<ModifiedUnifac name="Modified UNIFAC">
  <group id="1" value="1" />
  <group id="2" value="1" />
  <group id="3" value="1" />
  <group id="21" value="1" />
  <group id="24" value="1" />
  </ModifiedUnifac>
<CAS name="CAS number" value="108-65-6" />
<Smiles name="SMILES" value="CC(COC)OC(=O)C" />
</compound>

