<compound>
<LibraryIndex name="Index" value="520" />
<CompoundID name="Name" value="sec-butylbenzene" />
<StructureFormula name="Structure" value="(C6H5)CH(CH3)CH2CH3" />
<Family name="Family" value="17" />
<CriticalTemperature name="Critical temperature" units="K" value="664.54" />
<CriticalPressure name="Critical pressure" units="Pa" value="2930000" />
<CriticalVolume name="Critical volume" units="m3/kmol" value="0.478" />
<CriticalCompressibility name="Critical compressibility factor" units="_" value="0.265" />
<NormalBoilingPointTemperature name="Normal boiling point" units="K" value="446.48" />
<NormalMeltingPointTemperature name="Melting point" units="K" value="197.717" />
<TriplePointTemperature name="Triple point temperature" units="K" value="197.717" />
<TriplePointPressure name="Triple point pressure" units="Pa" value="0.00180534" />
<MolecularWeight name="Molecular weight" units="kg/kmol" value="134.2182" />
<LiquidVolumeAtNormalBoilingPoint name="Liquid molar volume at normal boiling point" units="m3/kmol" value="0.156497" />
<AcentricityFactor name="Acentric factor" units="_" value="0.279149" />
<RadiusOfGyration name="Radius of gyration" units="m" value="4.564E-10" />
<SolubilityParameter name="Solubility parameter" units="J0.5/m1.5" value="17050" />
<DipoleMoment name="Dipole moment" units="Coulomb.m" value="1.3E-30" />
<VanDerWaalsVolume name="Van der Waals volume" units="m3/kmol" value="0.09019" />
<VanDerWaalsArea name="Van der Waals area" units="m2/kmol" value="1.146E+09" />
<HeatOfFormation name="IG heat of formation" units="J/kmol" value="-1.73E+07" />
<GibbsEnergyOfFormation name="IG Gibbs energy of formation" units="J/kmol" value="1.4523E+08" />
<AbsEntropy name="IG absolute entropy" units="J/kmol/K" value="439600" />
<HeatOfFusionAtMeltingPoint name="Heat of fusion at melting point" units="J/kmol" value="9830000" />
<MatthiasCopemanC1 name="Mathias-Copeman C1" units="_" value="0.87947" />
<HeatOfCombustion name="Standard net heat of combustion LHV" units="J/kmol" value="-5.563E+09" />
<SolidDensity name="Solid density" units="kmol/m3">
  <eqno value="2" />
  <A value="8.7924" />
  <B value="-0.0049215" />
  <C value="0" />
  <D value="0" />
  <E value="0" />
  <Tmin units="K" value="79.09" />
  <Tmax units="K" value="197.72" />
  </SolidDensity>
<LiquidDensity name="Liquid density" units="kmol/m3">
  <eqno value="105" />
  <A value="0.51273" />
  <B value="0.25494" />
  <C value="664.54" />
  <D value="0.28096" />
  <Tmin units="K" value="197.72" />
  <Tmax units="K" value="664.54" />
  </LiquidDensity>
<VaporPressure name="Vapour pressure" units="Pa">
  <eqno value="101" />
  <A value="222.2329" />
  <B value="-13854.88" />
  <C value="-30.30702" />
  <D value="0.0000262583" />
  <E value="2" />
  <Tmin units="K" value="197.72" />
  <Tmax units="K" value="664.54" />
  </VaporPressure>
<HeatOfVaporization name="Heat of vaporization" units="J/kmol">
  <eqno value="106" />
  <A value="3.1793E+07" />
  <B value="-4.1563" />
  <C value="12.591" />
  <D value="-13.449" />
  <E value="5.2588" />
  <Tmin units="K" value="197.72" />
  <Tmax units="K" value="664.54" />
  </HeatOfVaporization>
<SolidHeatCapacityCp name="Solid heat capacity" units="J/kmol/K">
  <eqno value="1" />
  <A value="214740" />
  <Tmin units="K" value="0" />
  <Tmax units="K" value="664.54" />
  </SolidHeatCapacityCp>
<LiquidHeatCapacityCp name="Liquid heat capacity" units="J/kmol/K">
  <eqno value="16" />
  <A value="163140" />
  <B value="-1794.7" />
  <C value="23.385" />
  <D value="-0.029199" />
  <E value="0.000028" />
  <Tmin units="K" value="197.72" />
  <Tmax units="K" value="498.4" />
  </LiquidHeatCapacityCp>
<IdealGasHeatCapacityCp name="Ideal gas heat capacity" units="J/kmol/K">
  <eqno value="16" />
  <A value="118430" />
  <B value="-784.79" />
  <C value="13.745" />
  <D value="-0.00050199" />
  <E value="1.4393E-07" />
  <Tmin units="K" value="200" />
  <Tmax units="K" value="1500" />
  </IdealGasHeatCapacityCp>
<SecondVirialCoefficient name="Second virial coefficient" units="m3/kmol">
  <eqno value="104" />
  <A value="0.32727" />
  <B value="-453.4" />
  <C value="-94.023" />
  <D value="22089" />
  <E value="-123210" />
  <Tmin units="K" value="289.72" />
  <Tmax units="K" value="1500" />
  </SecondVirialCoefficient>
<LiquidViscosity name="Liquid viscosity" units="Pa.s">
  <eqno value="10" />
  <A value="-9.695648" />
  <B value="-444.5934" />
  <C value="-129.1082" />
  <D value="0" />
  <E value="0" />
  <Tmin units="K" value="161.3" />
  <Tmax units="K" value="550" />
  </LiquidViscosity>
<VaporViscosity name="Vapour viscosity" units="Pa.s">
  <eqno value="102" />
  <A value="0.000001223" />
  <B value="0.44278" />
  <C value="495.81" />
  <D value="151.45" />
  <Tmin units="K" value="197.72" />
  <Tmax units="K" value="1000" />
  </VaporViscosity>
<LiquidThermalConductivity name="Liquid thermal conductivity" units="W/m/K">
  <eqno value="16" />
  <A value="-0.042864" />
  <B value="5.3464" />
  <C value="-1.6033" />
  <D value="-0.00035754" />
  <E value="-0.0000011781" />
  <Tmin units="K" value="197.72" />
  <Tmax units="K" value="446.48" />
  </LiquidThermalConductivity>
<VaporThermalConductivity name="Vapour thermal conductivity" units="W/m/K">
  <eqno value="102" />
  <A value="0.000022" />
  <B value="1.2101" />
  <C value="186.5" />
  <D value="49434" />
  <Tmin units="K" value="197.717" />
  <Tmax units="K" value="1000" />
  </VaporThermalConductivity>
<SurfaceTension name="Surface tension" units="N/m">
  <eqno value="16" />
  <A value="-0.0072678" />
  <B value="56.315" />
  <C value="-3.3559" />
  <D value="0.00098625" />
  <E value="-0.0000052989" />
  <Tmin units="K" value="197.72" />
  <Tmax units="K" value="664.54" />
  </SurfaceTension>
<RPPHeatCapacityCp name="Ideal gas heat capacity (RPP)" units="J/kmol/K">
  <eqno value="4" />
  <A value="-13101" />
  <B value="760.71" />
  <C value="-0.41343" />
  <D value="0.000082333" />
  <Tmin units="K" value="200" />
  <Tmax units="K" value="1500" />
  </RPPHeatCapacityCp>
<AntoineVaporPressure name="Antoine" units="Pa">
  <eqno value="10" />
  <A value="20.126" />
  <B value="3014.6" />
  <C value="-95.941" />
  <Tmin units="K" value="399.82" />
  <Tmax units="K" value="590.83" />
  </AntoineVaporPressure>
<LiquidViscosityRPS name="Liquid viscosity (RPS)" units="Pa.s">
  <eqno value="12" />
  <A value="3.746" />
  <B value="-0.031996" />
  <Tmin units="K" value="161.3" />
  <Tmax units="K" value="446.48" />
  </LiquidViscosityRPS>
<COSTALDVolume name="COSTLD characteristic volume (V*)" units="m3/kmol" value="0.495922" />
<DiameterLJ name="Lennard Jones diameter" units="m" value="7.180576E-10" />
<EnergyLJ name="Lennard Jones energy" units="K" value="364.0151" />
<RacketParameter name="Rackett parameter" units="_" value="0.265" />
<FullerVolume name="Fuller et al. diffusion volume" units="_" value="173.04" />
<MatthiasCopemanC2 name="Mathias-Copeman C2" units="_" value="0.37782" />
<Parachor name="Parachor" units="kg0.25.m3/s0.5/kmol" value="0.0633935" />
<SpecificGravity name="Specific gravity" units="_" value="0.86584" />
<Charge name="Charge" units="_" value="0" />
<CostaldAcentricFactor name="SRK acentric factor" units="_" value="0.279149" />
<WilsonVolume name="Wilson volume" units="m3/kmol" value="0.156497" />
<UniquacR name="UNIQUAC r" units="_" value="5.9452" />
<UniquacQ name="UNIQUAC q" units="_" value="4.584" />
<ApiSrkS2 name="API-SRK s2" units="_" value="0.01848" />
<MatthiasCopemanC3 name="Mathias-Copeman C3" units="_" value="-0.36042" />
<ChaoSeaderAcentricFactor name="Chao-Seader acentric factor" units="_" value="0.279149" />
<ChaoSeaderSolubilityParameter name="Chao-Seader solubility parameter" units="J0.5/m1.5" value="17050" />
<ChaoSeaderLiquidVolume name="Chao-Seader liquid volume" units="m3/kmol" value="0.156497" />
<UnifacVLE name="UNIFAC">
  <group id="1" value="2" />
  <group id="2" value="1" />
  <group id="10" value="5" />
  <group id="14" value="1" />
  </UnifacVLE>
<UnifacLLE name="UNIFAC-LLE">
  <group id="1" value="2" />
  <group id="2" value="1" />
  <group id="9" value="5" />
  <group id="13" value="1" />
  </UnifacLLE>
<Asog name="ASOG">
  <group id="1" value="2" />
  <group id="2" value="1" />
  <group id="3" value="1" />
  <group id="10" value="5" />
  <group id="11" value="1" />
  </Asog>
<GCmethod name="PPR78">
  <group id="1" value="2" />
  <group id="3" value="1" />
  <group id="2" value="1" />
  <group id="7" value="5" />
  <group id="8" value="1" />
  </GCmethod>
<Umr name="UMR">
  <group id="1" value="2" />
  <group id="2" value="1" />
  <group id="10" value="5" />
  <group id="14" value="1" />
  </Umr>
<ModifiedUnifac name="Modified UNIFAC">
  <group id="1" value="2" />
  <group id="2" value="1" />
  <group id="9" value="5" />
  <group id="13" value="1" />
  </ModifiedUnifac>
<CAS name="CAS number" value="135-98-8" />
<Smiles name="SMILES" value="c1(C(C)CC)ccccc1" />
</compound>

