<compound>
<LibraryIndex name="Index" value="1806" />
<CompoundID name="Name" value="sec-butyl mercaptan" />
<StructureFormula name="Structure" value="CH3CH2CH(SH)CH3" />
<Family name="Family" value="41" />
<CriticalTemperature name="Critical temperature" units="K" value="551" />
<CriticalPressure name="Critical pressure" units="Pa" value="3970000" />
<CriticalVolume name="Critical volume" units="m3/kmol" value="0.307" />
<CriticalCompressibility name="Critical compressibility factor" units="_" value="0.271" />
<NormalBoilingPointTemperature name="Normal boiling point" units="K" value="358.13" />
<NormalMeltingPointTemperature name="Melting point" units="K" value="133.01" />
<TriplePointTemperature name="Triple point temperature" units="K" value="133.01" />
<TriplePointPressure name="Triple point pressure" units="Pa" value="0.0000339902" />
<MolecularWeight name="Molecular weight" units="kg/kmol" value="90.18719" />
<LiquidVolumeAtNormalBoilingPoint name="Liquid molar volume at normal boiling point" units="m3/kmol" value="0.10943" />
<AcentricityFactor name="Acentric factor" units="_" value="0.25" />
<RadiusOfGyration name="Radius of gyration" units="m" value="3.362E-10" />
<SolubilityParameter name="Solubility parameter" units="J0.5/m1.5" value="17000" />
<DipoleMoment name="Dipole moment" units="Coulomb.m" value="5.17E-30" />
<VanDerWaalsVolume name="Van der Waals volume" units="m3/kmol" value="0.05916" />
<VanDerWaalsArea name="Van der Waals area" units="m2/kmol" value="8.45E+08" />
<HeatOfFormation name="IG heat of formation" units="J/kmol" value="-9.66E+07" />
<GibbsEnergyOfFormation name="IG Gibbs energy of formation" units="J/kmol" value="5200000" />
<AbsEntropy name="IG absolute entropy" units="J/kmol/K" value="366730" />
<HeatOfFusionAtMeltingPoint name="Heat of fusion at melting point" units="J/kmol" value="6477000" />
<MatthiasCopemanC1 name="Mathias-Copeman C1" units="_" value="0.85933" />
<HeatOfCombustion name="Standard net heat of combustion LHV" units="J/kmol" value="-2.95E+09" />
<SolidDensity name="Solid density" units="kmol/m3">
  <eqno value="2" />
  <A value="13.628" />
  <B value="-0.011085" />
  <C value="0" />
  <D value="0" />
  <E value="0" />
  <Tmin units="K" value="53.21" />
  <Tmax units="K" value="133.02" />
  </SolidDensity>
<LiquidDensity name="Liquid density" units="kmol/m3">
  <eqno value="105" />
  <A value="0.81743" />
  <B value="0.26237" />
  <C value="554.01" />
  <D value="0.28149" />
  <Tmin units="K" value="133.02" />
  <Tmax units="K" value="554" />
  </LiquidDensity>
<VaporPressure name="Vapour pressure" units="Pa">
  <eqno value="101" />
  <A value="85.20348" />
  <B value="-6580.804" />
  <C value="-9.568603" />
  <D value="0.0000075683" />
  <E value="2" />
  <Tmin units="K" value="133.02" />
  <Tmax units="K" value="554" />
  </VaporPressure>
<HeatOfVaporization name="Heat of vaporization" units="J/kmol">
  <eqno value="106" />
  <A value="4.567571E+07" />
  <B value="0.16352" />
  <C value="0.885588" />
  <D value="-1.131485" />
  <E value="0.438377" />
  <Tmin units="K" value="133.02" />
  <Tmax units="K" value="531.84" />
  </HeatOfVaporization>
<SolidHeatCapacityCp name="Solid heat capacity" units="J/kmol/K">
  <eqno value="100" />
  <A value="-14348" />
  <B value="1684.2" />
  <C value="-14.306" />
  <D value="0.073175" />
  <E value="-0.00012364" />
  <Tmin units="K" value="12.44" />
  <Tmax units="K" value="133.02" />
  </SolidHeatCapacityCp>
<LiquidHeatCapacityCp name="Liquid heat capacity" units="J/kmol/K">
  <eqno value="16" />
  <A value="132220" />
  <B value="286.96" />
  <C value="6.629" />
  <D value="0.011753" />
  <E value="-0.0000059086" />
  <Tmin units="K" value="133.02" />
  <Tmax units="K" value="470" />
  </LiquidHeatCapacityCp>
<IdealGasHeatCapacityCp name="Ideal gas heat capacity" units="J/kmol/K">
  <eqno value="16" />
  <A value="85634" />
  <B value="-697.09" />
  <C value="12.792" />
  <D value="-0.00003836" />
  <E value="-5.0229E-09" />
  <Tmin units="K" value="200" />
  <Tmax units="K" value="1500" />
  </IdealGasHeatCapacityCp>
<SecondVirialCoefficient name="Second virial coefficient" units="m3/kmol">
  <eqno value="104" />
  <A value="0.15286" />
  <B value="-191.11" />
  <C value="-37.033" />
  <D value="3742.9" />
  <E value="-12255" />
  <Tmin units="K" value="270.5" />
  <Tmax units="K" value="1623" />
  </SecondVirialCoefficient>
<LiquidViscosity name="Liquid viscosity" units="Pa.s">
  <eqno value="101" />
  <A value="-11.718" />
  <B value="953.76" />
  <C value="0.15985" />
  <D value="-4.5581E-07" />
  <E value="2" />
  <Tmin units="K" value="133.02" />
  <Tmax units="K" value="393" />
  </LiquidViscosity>
<VaporViscosity name="Vapour viscosity" units="Pa.s">
  <eqno value="102" />
  <A value="8.4539E-08" />
  <B value="0.83594" />
  <C value="117.21" />
  <D value="-7872.1" />
  <Tmin units="K" value="133.02" />
  <Tmax units="K" value="1000" />
  </VaporViscosity>
<LiquidThermalConductivity name="Liquid thermal conductivity" units="W/m/K">
  <eqno value="16" />
  <A value="-0.032852" />
  <B value="4.221" />
  <C value="-1.5207" />
  <D value="-0.0004702" />
  <E value="-0.0000018598" />
  <Tmin units="K" value="133.02" />
  <Tmax units="K" value="358.13" />
  </LiquidThermalConductivity>
<VaporThermalConductivity name="Vapour thermal conductivity" units="W/m/K">
  <eqno value="102" />
  <A value="0.97519" />
  <B value="-0.11286" />
  <C value="1130.7" />
  <D value="3149700" />
  <Tmin units="K" value="133.01" />
  <Tmax units="K" value="1000" />
  </VaporThermalConductivity>
<SurfaceTension name="Surface tension" units="N/m">
  <eqno value="16" />
  <A value="-0.016327" />
  <B value="13.06" />
  <C value="-2.6627" />
  <D value="-0.0011001" />
  <E value="-0.0000030132" />
  <Tmin units="K" value="133.02" />
  <Tmax units="K" value="531.84" />
  </SurfaceTension>
<RPPHeatCapacityCp name="Ideal gas heat capacity (RPP)" units="J/kmol/K">
  <eqno value="4" />
  <A value="22301" />
  <B value="378.69" />
  <C value="-0.16891" />
  <D value="0.000025206" />
  <Tmin units="K" value="200" />
  <Tmax units="K" value="1500" />
  </RPPHeatCapacityCp>
<RelativeStaticPermittivity name="Relative static permittivity" units="_">
  <eqno value="120" />
  <A value="-4.77" />
  <B value="-2825" />
  <C value="-16.95" />
  <Tmin units="K" value="270" />
  <Tmax units="K" value="440" />
  </RelativeStaticPermittivity>
<AntoineVaporPressure name="Antoine" units="Pa">
  <eqno value="10" />
  <A value="20.911" />
  <B value="2934.9" />
  <C value="-45.402" />
  <Tmin units="K" value="332.43" />
  <Tmax units="K" value="490" />
  </AntoineVaporPressure>
<LiquidViscosityRPS name="Liquid viscosity (RPS)" units="Pa.s">
  <eqno value="12" />
  <A value="-2.1814" />
  <B value="-0.018144" />
  <Tmin units="K" value="133.02" />
  <Tmax units="K" value="358.13" />
  </LiquidViscosityRPS>
<COSTALDVolume name="COSTLD characteristic volume (V*)" units="m3/kmol" value="0.315992" />
<DiameterLJ name="Lennard Jones diameter" units="m" value="6.031073E-10" />
<EnergyLJ name="Lennard Jones energy" units="K" value="327.1555" />
<RacketParameter name="Rackett parameter" units="_" value="0.271" />
<FullerVolume name="Fuller et al. diffusion volume" units="_" value="111.786" />
<MatthiasCopemanC2 name="Mathias-Copeman C2" units="_" value="0" />
<Parachor name="Parachor" units="kg0.25.m3/s0.5/kmol" value="0.042761" />
<SpecificGravity name="Specific gravity" units="_" value="0.83338" />
<Charge name="Charge" units="_" value="0" />
<CostaldAcentricFactor name="SRK acentric factor" units="_" value="0.25" />
<WilsonVolume name="Wilson volume" units="m3/kmol" value="0.10943" />
<UniquacR name="UNIQUAC r" units="_" value="4.1276" />
<UniquacQ name="UNIQUAC q" units="_" value="3.604" />
<MatthiasCopemanC3 name="Mathias-Copeman C3" units="_" value="0" />
<ChaoSeaderAcentricFactor name="Chao-Seader acentric factor" units="_" value="0.25" />
<ChaoSeaderSolubilityParameter name="Chao-Seader solubility parameter" units="J0.5/m1.5" value="17000" />
<ChaoSeaderLiquidVolume name="Chao-Seader liquid volume" units="m3/kmol" value="0.10943" />
<Asog name="ASOG">
  <group id="1" value="2" />
  <group id="2" value="1" />
  <group id="3" value="1" />
  <group id="55" value="1" />
  </Asog>
<GCmethod name="PPR78">
  <group id="1" value="2" />
  <group id="3" value="1" />
  <group id="2" value="1" />
  <group id="15" value="1" />
  </GCmethod>
<CAS name="CAS number" value="513-53-1" />
<Smiles name="SMILES" value="CC(S)CC" />
</compound>

