<compound>
<LibraryIndex name="Index" value="55" />
<CompoundID name="Name" value="squalane" />
<StructureFormula name="Structure" value="((CH3)2CH(C3H6CH(CH3))2C2H4)2" />
<Family name="Family" value="4" />
<CriticalTemperature name="Critical temperature" units="K" value="863" />
<CriticalPressure name="Critical pressure" units="Pa" value="868000" />
<CriticalVolume name="Critical volume" units="m3/kmol" value="1.64" />
<CriticalCompressibility name="Critical compressibility factor" units="_" value="0.198" />
<NormalBoilingPointTemperature name="Normal boiling point" units="K" value="623.15" />
<NormalMeltingPointTemperature name="Melting point" units="K" value="235.15" />
<TriplePointTemperature name="Triple point temperature" units="K" value="235.15" />
<TriplePointPressure name="Triple point pressure" units="Pa" value="1.70072E-12" />
<MolecularWeight name="Molecular weight" units="kg/kmol" value="422.8133" />
<LiquidVolumeAtNormalBoilingPoint name="Liquid molar volume at normal boiling point" units="m3/kmol" value="0.526135" />
<AcentricityFactor name="Acentric factor" units="_" value="0.915303" />
<RadiusOfGyration name="Radius of gyration" units="m" value="1.147E-09" />
<SolubilityParameter name="Solubility parameter" units="J0.5/m1.5" value="14490" />
<DipoleMoment name="Dipole moment" units="Coulomb.m" value="0" />
<VanDerWaalsVolume name="Van der Waals volume" units="m3/kmol" value="0.31372" />
<VanDerWaalsArea name="Van der Waals area" units="m2/kmol" value="4.198E+09" />
<HeatOfFormation name="IG heat of formation" units="J/kmol" value="-6.896E+08" />
<GibbsEnergyOfFormation name="IG Gibbs energy of formation" units="J/kmol" value="1.868E+08" />
<AbsEntropy name="IG absolute entropy" units="J/kmol/K" value="1272000" />
<HeatOfFusionAtMeltingPoint name="Heat of fusion at melting point" units="J/kmol" value="4.7E+07" />
<MatthiasCopemanC1 name="Mathias-Copeman C1" units="_" value="1.8" />
<HeatOfCombustion name="Standard net heat of combustion LHV" units="J/kmol" value="-1.85E+10" />
<SolidDensity name="Solid density" units="kmol/m3">
  <eqno value="100" />
  <A value="2.5508" />
  <B value="-0.001356" />
  <C value="0" />
  <D value="0" />
  <E value="0" />
  <Tmin units="K" value="94.06" />
  <Tmax units="K" value="235.15" />
  </SolidDensity>
<LiquidDensity name="Liquid density" units="kmol/m3">
  <eqno value="105" />
  <A value="0.15996" />
  <B value="0.26223" />
  <C value="863" />
  <D value="0.38604" />
  <Tmin units="K" value="235.15" />
  <Tmax units="K" value="863" />
  </LiquidDensity>
<VaporPressure name="Vapour pressure" units="Pa">
  <eqno value="101" />
  <A value="518.45" />
  <B value="-40342" />
  <C value="-70.491" />
  <D value="0.00002486" />
  <E value="2" />
  <Tmin units="K" value="235.15" />
  <Tmax units="K" value="863" />
  </VaporPressure>
<HeatOfVaporization name="Heat of vaporization" units="J/kmol">
  <eqno value="106" />
  <A value="1.3274E+08" />
  <B value="0.38" />
  <C value="0" />
  <D value="0" />
  <E value="0" />
  <Tmin units="K" value="235.15" />
  <Tmax units="K" value="863" />
  </HeatOfVaporization>
<SolidHeatCapacityCp name="Solid heat capacity" units="J/kmol/K">
  <eqno value="102" />
  <A value="21100" />
  <B value="0.79267" />
  <C value="0" />
  <D value="0" />
  <Tmin units="K" value="50" />
  <Tmax units="K" value="235.15" />
  </SolidHeatCapacityCp>
<LiquidHeatCapacityCp name="Liquid heat capacity" units="J/kmol/K">
  <eqno value="16" />
  <A value="-38276" />
  <B value="-113.46" />
  <C value="13.728" />
  <D value="0.001186" />
  <E value="-3.7363E-07" />
  <Tmin units="K" value="300" />
  <Tmax units="K" value="720" />
  </LiquidHeatCapacityCp>
<IdealGasHeatCapacityCp name="Ideal gas heat capacity" units="J/kmol/K">
  <eqno value="16" />
  <A value="369830" />
  <B value="-553.39" />
  <C value="14.489" />
  <D value="0.00010319" />
  <E value="-3.8186E-08" />
  <Tmin units="K" value="273" />
  <Tmax units="K" value="1500" />
  </IdealGasHeatCapacityCp>
<SecondVirialCoefficient name="Second virial coefficient" units="m3/kmol">
  <eqno value="104" />
  <A value="1.4043" />
  <B value="-1190.2" />
  <C value="-1952.6" />
  <D value="-3198600" />
  <E value="3136900" />
  <Tmin units="K" value="431.5" />
  <Tmax units="K" value="1500" />
  </SecondVirialCoefficient>
<LiquidViscosity name="Liquid viscosity" units="Pa.s">
  <eqno value="118" />
  <A value="-347.8968" />
  <B value="71874.9" />
  <C value="53.72611" />
  <D value="-0.0000616157" />
  <E value="1.3" />
  <Tmin units="K" value="233.15" />
  <Tmax units="K" value="720" />
  </LiquidViscosity>
<VaporViscosity name="Vapour viscosity" units="Pa.s">
  <eqno value="102" />
  <A value="2.2128E-07" />
  <B value="0.5436" />
  <C value="144.2" />
  <D value="25.787" />
  <Tmin units="K" value="235.15" />
  <Tmax units="K" value="1000" />
  </VaporViscosity>
<LiquidThermalConductivity name="Liquid thermal conductivity" units="W/m/K">
  <eqno value="16" />
  <A value="-0.045427" />
  <B value="7.6198" />
  <C value="-1.8982" />
  <D value="-0.00026051" />
  <E value="-5.9557E-07" />
  <Tmin units="K" value="235.15" />
  <Tmax units="K" value="720" />
  </LiquidThermalConductivity>
<VaporThermalConductivity name="Vapour thermal conductivity" units="W/m/K">
  <eqno value="102" />
  <A value="0.000056714" />
  <B value="1.0625" />
  <C value="551.79" />
  <D value="75579" />
  <Tmin units="K" value="235.15" />
  <Tmax units="K" value="1000" />
  </VaporThermalConductivity>
<SurfaceTension name="Surface tension" units="N/m">
  <eqno value="16" />
  <A value="-0.068044" />
  <B value="-20.425" />
  <C value="-1.8668" />
  <D value="-0.0015438" />
  <E value="7.0904E-07" />
  <Tmin units="K" value="235.15" />
  <Tmax units="K" value="863" />
  </SurfaceTension>
<RPPHeatCapacityCp name="Ideal gas heat capacity (RPP)" units="J/kmol/K">
  <eqno value="4" />
  <A value="-51533" />
  <B value="2946.8" />
  <C value="-1.7001" />
  <D value="0.00038015" />
  <Tmin units="K" value="300" />
  <Tmax units="K" value="1500" />
  </RPPHeatCapacityCp>
<AntoineVaporPressure name="Antoine" units="Pa">
  <eqno value="10" />
  <A value="20.512" />
  <B value="5091.9" />
  <C value="-151.93" />
  <Tmin units="K" value="532.15" />
  <Tmax units="K" value="763.87" />
  </AntoineVaporPressure>
<LiquidViscosityRPS name="Liquid viscosity (RPS)" units="Pa.s">
  <eqno value="12" />
  <A value="15.101" />
  <B value="-0.059092" />
  <Tmin units="K" value="233.15" />
  <Tmax units="K" value="720" />
  </LiquidViscosityRPS>
<COSTALDVolume name="COSTLD characteristic volume (V*)" units="m3/kmol" value="1.64" />
<DiameterLJ name="Lennard Jones diameter" units="m" value="1.536483E-09" />
<EnergyLJ name="Lennard Jones energy" units="K" value="165.546" />
<RacketParameter name="Rackett parameter" units="_" value="0.198" />
<FullerVolume name="Fuller et al. diffusion volume" units="_" value="620.22" />
<MatthiasCopemanC2 name="Mathias-Copeman C2" units="_" value="0" />
<Parachor name="Parachor" units="kg0.25.m3/s0.5/kmol" value="0.21451" />
<SpecificGravity name="Specific gravity" units="_" value="0.810331" />
<Charge name="Charge" units="_" value="0" />
<CostaldAcentricFactor name="SRK acentric factor" units="_" value="-0.2" />
<WilsonVolume name="Wilson volume" units="m3/kmol" value="0.526135" />
<UniquacR name="UNIQUAC r" units="_" value="20.6854" />
<UniquacQ name="UNIQUAC q" units="_" value="16.816" />
<MatthiasCopemanC3 name="Mathias-Copeman C3" units="_" value="0" />
<ChaoSeaderAcentricFactor name="Chao-Seader acentric factor" units="_" value="0.915303" />
<ChaoSeaderSolubilityParameter name="Chao-Seader solubility parameter" units="J0.5/m1.5" value="14490" />
<ChaoSeaderLiquidVolume name="Chao-Seader liquid volume" units="m3/kmol" value="0.526135" />
<UnifacVLE name="UNIFAC">
  <group id="1" value="8" />
  <group id="2" value="16" />
  <group id="3" value="6" />
  </UnifacVLE>
<UnifacLLE name="UNIFAC-LLE">
  <group id="1" value="8" />
  <group id="2" value="16" />
  <group id="3" value="6" />
  </UnifacLLE>
<Asog name="ASOG">
  <group id="1" value="8" />
  <group id="2" value="16" />
  <group id="3" value="6" />
  </Asog>
<GCmethod name="PPR78">
  <group id="1" value="8" />
  <group id="2" value="16" />
  <group id="3" value="6" />
  </GCmethod>
<Umr name="UMR">
  <group id="1" value="8" />
  <group id="2" value="16" />
  <group id="3" value="6" />
  </Umr>
<ModifiedUnifac name="Modified UNIFAC">
  <group id="1" value="8" />
  <group id="2" value="16" />
  <group id="3" value="6" />
  </ModifiedUnifac>
<CAS name="CAS number" value="111-01-3" />
<Smiles name="SMILES" value="CC(C)CCCC(C)CCCC(C)CCCCC(C)CCCC(C)CCCC(C)C" />
</compound>

