<compound>
<LibraryIndex name="Index" value="601" />
<CompoundID name="Name" value="styrene" />
<StructureFormula name="Structure" value="(C6H5)CHCH2" />
<Family name="Family" value="18" />
<CriticalTemperature name="Critical temperature" units="K" value="636" />
<CriticalPressure name="Critical pressure" units="Pa" value="3840000" />
<CriticalVolume name="Critical volume" units="m3/kmol" value="0.352" />
<CriticalCompressibility name="Critical compressibility factor" units="_" value="0.256" />
<NormalBoilingPointTemperature name="Normal boiling point" units="K" value="418.31" />
<NormalMeltingPointTemperature name="Melting point" units="K" value="242.54" />
<TriplePointTemperature name="Triple point temperature" units="K" value="242.54" />
<TriplePointPressure name="Triple point pressure" units="Pa" value="10.6132" />
<MolecularWeight name="Molecular weight" units="kg/kmol" value="104.149" />
<LiquidVolumeAtNormalBoilingPoint name="Liquid molar volume at normal boiling point" units="m3/kmol" value="0.115667" />
<AcentricityFactor name="Acentric factor" units="_" value="0.297097" />
<RadiusOfGyration name="Radius of gyration" units="m" value="3.81E-10" />
<SolubilityParameter name="Solubility parameter" units="J0.5/m1.5" value="19020" />
<DipoleMoment name="Dipole moment" units="Coulomb.m" value="4.33E-31" />
<VanDerWaalsVolume name="Van der Waals volume" units="m3/kmol" value="0.06625" />
<VanDerWaalsArea name="Van der Waals area" units="m2/kmol" value="8.27E+08" />
<HeatOfFormation name="IG heat of formation" units="J/kmol" value="1.474E+08" />
<GibbsEnergyOfFormation name="IG Gibbs energy of formation" units="J/kmol" value="2.139E+08" />
<AbsEntropy name="IG absolute entropy" units="J/kmol/K" value="345100" />
<HeatOfFusionAtMeltingPoint name="Heat of fusion at melting point" units="J/kmol" value="1.095E+07" />
<MatthiasCopemanC1 name="Mathias-Copeman C1" units="_" value="0.93739" />
<HeatOfCombustion name="Standard net heat of combustion LHV" units="J/kmol" value="-4.219E+09" />
<SolidDensity name="Solid density" units="kmol/m3">
  <eqno value="2" />
  <A value="9.7167" />
  <B value="-9.6333E-09" />
  <Tmin units="K" value="93.15" />
  <Tmax units="K" value="102.65" />
  </SolidDensity>
<LiquidDensity name="Liquid density" units="kmol/m3">
  <eqno value="105" />
  <A value="0.57789" />
  <B value="0.23139" />
  <C value="640.77" />
  <D value="0.26351" />
  <Tmin units="K" value="242.54" />
  <Tmax units="K" value="640.76" />
  </LiquidDensity>
<VaporPressure name="Vapour pressure" units="Pa">
  <eqno value="101" />
  <A value="399.8489" />
  <B value="-19017.34" />
  <C value="-58.96286" />
  <D value="0.0000747957" />
  <E value="2" />
  <Tmin units="K" value="242.54" />
  <Tmax units="K" value="636" />
  </VaporPressure>
<HeatOfVaporization name="Heat of vaporization" units="J/kmol">
  <eqno value="106" />
  <A value="1.110621E+08" />
  <B value="3.429275" />
  <C value="-6.061051" />
  <D value="4.605581" />
  <E value="-1.408226" />
  <Tmin units="K" value="242.54" />
  <Tmax units="K" value="615.29" />
  </HeatOfVaporization>
<SolidHeatCapacityCp name="Solid heat capacity" units="J/kmol/K">
  <eqno value="100" />
  <A value="-19432" />
  <B value="1905.5" />
  <C value="-18.713" />
  <D value="0.095712" />
  <E value="-0.00015273" />
  <Tmin units="K" value="15.28" />
  <Tmax units="K" value="240.03" />
  </SolidHeatCapacityCp>
<LiquidHeatCapacityCp name="Liquid heat capacity" units="J/kmol/K">
  <eqno value="16" />
  <A value="134310" />
  <B value="-99.916" />
  <C value="9.4935" />
  <D value="0.0058294" />
  <E value="-0.0000013972" />
  <Tmin units="K" value="242.54" />
  <Tmax units="K" value="418.31" />
  </LiquidHeatCapacityCp>
<IdealGasHeatCapacityCp name="Ideal gas heat capacity" units="J/kmol/K">
  <eqno value="16" />
  <A value="57806.72" />
  <B value="-550.4249" />
  <C value="12.95376" />
  <D value="-0.0000950882" />
  <E value="2.294759E-08" />
  <Tmin units="K" value="100" />
  <Tmax units="K" value="1500" />
  </IdealGasHeatCapacityCp>
<SecondVirialCoefficient name="Second virial coefficient" units="m3/kmol">
  <eqno value="104" />
  <A value="0.21818" />
  <B value="-307.77" />
  <C value="-59.025" />
  <D value="55700" />
  <E value="-203800" />
  <Tmin units="K" value="324" />
  <Tmax units="K" value="2000" />
  </SecondVirialCoefficient>
<LiquidViscosity name="Liquid viscosity" units="Pa.s">
  <eqno value="101" />
  <A value="-24.717" />
  <B value="1824" />
  <C value="1.9977" />
  <D value="-4.7933E-07" />
  <E value="2" />
  <Tmin units="K" value="242.54" />
  <Tmax units="K" value="508.8" />
  </LiquidViscosity>
<VaporViscosity name="Vapour viscosity" units="Pa.s">
  <eqno value="102" />
  <A value="3.6968E-08" />
  <B value="0.90482" />
  <C value="-32.023" />
  <D value="10027" />
  <Tmin units="K" value="242.54" />
  <Tmax units="K" value="1273.15" />
  </VaporViscosity>
<LiquidThermalConductivity name="Liquid thermal conductivity" units="W/m/K">
  <eqno value="16" />
  <A value="-0.071817" />
  <B value="-30.013" />
  <C value="-1.0262" />
  <D value="-0.0015623" />
  <E value="2.7674E-07" />
  <Tmin units="K" value="242.54" />
  <Tmax units="K" value="598.15" />
  </LiquidThermalConductivity>
<VaporThermalConductivity name="Vapour thermal conductivity" units="W/m/K">
  <eqno value="102" />
  <A value="0.010229" />
  <B value="0.40085" />
  <C value="535.56" />
  <D value="704200" />
  <Tmin units="K" value="242.54" />
  <Tmax units="K" value="1000" />
  </VaporThermalConductivity>
<SurfaceTension name="Surface tension" units="N/m">
  <eqno value="16" />
  <A value="0.014356" />
  <B value="-415.6" />
  <C value="0.14176" />
  <D value="-0.011441" />
  <E value="0.0000063214" />
  <Tmin units="K" value="273.15" />
  <Tmax units="K" value="418.31" />
  </SurfaceTension>
<RPPHeatCapacityCp name="Ideal gas heat capacity (RPP)" units="J/kmol/K">
  <eqno value="4" />
  <A value="-36913.76" />
  <B value="665.256" />
  <C value="-0.485051" />
  <D value="0.000140879" />
  <Tmin units="K" value="200" />
  <Tmax units="K" value="1500" />
  </RPPHeatCapacityCp>
<AntoineVaporPressure name="Antoine" units="Pa">
  <eqno value="10" />
  <A value="20.888" />
  <B value="3339.6" />
  <C value="-61.724" />
  <Tmin units="K" value="383" />
  <Tmax units="K" value="553.17" />
  </AntoineVaporPressure>
<LiquidViscosityRPS name="Liquid viscosity (RPS)" units="Pa.s">
  <eqno value="13" />
  <A value="0.77036" />
  <B value="-0.039418" />
  <C value="0.000042054" />
  <Tmin units="K" value="242.54" />
  <Tmax units="K" value="418.31" />
  </LiquidViscosityRPS>
<COSTALDVolume name="COSTLD characteristic volume (V*)" units="m3/kmol" value="0.34819" />
<DiameterLJ name="Lennard Jones diameter" units="m" value="6.758825E-10" />
<EnergyLJ name="Lennard Jones energy" units="K" value="307.6339" />
<FullerVolume name="Fuller et al. diffusion volume" units="_" value="127.38" />
<MatthiasCopemanC2 name="Mathias-Copeman C2" units="_" value="0" />
<Parachor name="Parachor" units="kg0.25.m3/s0.5/kmol" value="0.0486305" />
<SpecificGravity name="Specific gravity" units="_" value="0.909306" />
<Charge name="Charge" units="_" value="0" />
<CostaldAcentricFactor name="SRK acentric factor" units="_" value="0.24199" />
<WilsonVolume name="Wilson volume" units="m3/kmol" value="0.115667" />
<UniquacR name="UNIQUAC r" units="_" value="4.37" />
<UniquacQ name="UNIQUAC q" units="_" value="3.3" />
<UniquacQP name="UNIQUAC q'" units="_" value="3.3" />
<ApiSrkS2 name="API-SRK s2" units="_" value="0.01967" />
<MatthiasCopemanC3 name="Mathias-Copeman C3" units="_" value="0" />
<ChaoSeaderAcentricFactor name="Chao-Seader acentric factor" units="_" value="0.2302" />
<ChaoSeaderSolubilityParameter name="Chao-Seader solubility parameter" units="J0.5/m1.5" value="19015.9" />
<ChaoSeaderLiquidVolume name="Chao-Seader liquid volume" units="m3/kmol" value="0.115667" />
<UnifacVLE name="UNIFAC">
  <group id="5" value="1" />
  <group id="10" value="5" />
  <group id="11" value="1" />
  </UnifacVLE>
<UnifacLLE name="UNIFAC-LLE">
  <group id="2" value="1" />
  <group id="9" value="5" />
  <group id="13" value="1" />
  </UnifacLLE>
<Asog name="ASOG">
  <group id="5" value="1" />
  <group id="10" value="5" />
  <group id="11" value="1" />
  </Asog>
<GCmethod name="PPR78">
  <group id="2" value="1" />
  <group id="7" value="5" />
  <group id="8" value="1" />
  <group id="18" value="1" />
  </GCmethod>
<Umr name="UMR">
  <group id="5" value="1" />
  <group id="10" value="5" />
  <group id="11" value="1" />
  </Umr>
<ModifiedUnifac name="Modified UNIFAC">
  <group id="5" value="1" />
  <group id="9" value="5" />
  <group id="10" value="1" />
  </ModifiedUnifac>
<CAS name="CAS number" value="100-42-5" />
<Smiles name="SMILES" value="C=Cc1ccccc1" />
</compound>

