<compound>
<LibraryIndex name="Index" value="910" />
<CompoundID name="Name" value="sulfur dioxide" />
<StructureFormula name="Structure" value="OSO" />
<Family name="Family" value="24" />
<CriticalTemperature name="Critical temperature" units="K" value="430.75" />
<CriticalPressure name="Critical pressure" units="Pa" value="7884100" />
<CriticalVolume name="Critical volume" units="m3/kmol" value="0.122" />
<CriticalCompressibility name="Critical compressibility factor" units="_" value="0.269" />
<NormalBoilingPointTemperature name="Normal boiling point" units="K" value="263.13" />
<NormalMeltingPointTemperature name="Melting point" units="K" value="200" />
<TriplePointTemperature name="Triple point temperature" units="K" value="197.67" />
<TriplePointPressure name="Triple point pressure" units="Pa" value="1674.39" />
<MolecularWeight name="Molecular weight" units="kg/kmol" value="64.0638" />
<LiquidVolumeAtNormalBoilingPoint name="Liquid molar volume at normal boiling point" units="m3/kmol" value="0.04688" />
<AcentricityFactor name="Acentric factor" units="_" value="0.245381" />
<RadiusOfGyration name="Radius of gyration" units="m" value="1.66E-10" />
<SolubilityParameter name="Solubility parameter" units="J0.5/m1.5" value="12270" />
<DipoleMoment name="Dipole moment" units="Coulomb.m" value="5.44E-30" />
<VanDerWaalsVolume name="Van der Waals volume" units="m3/kmol" value="0.02573" />
<VanDerWaalsArea name="Van der Waals area" units="m2/kmol" value="4.03E+08" />
<HeatOfFormation name="IG heat of formation" units="J/kmol" value="-2.9684E+08" />
<GibbsEnergyOfFormation name="IG Gibbs energy of formation" units="J/kmol" value="-3.0012E+08" />
<AbsEntropy name="IG absolute entropy" units="J/kmol/K" value="248100" />
<HeatOfFusionAtMeltingPoint name="Heat of fusion at melting point" units="J/kmol" value="7401000" />
<MatthiasCopemanC1 name="Mathias-Copeman C1" units="_" value="0.86399" />
<HeatOfCombustion name="Standard net heat of combustion LHV" units="J/kmol" value="0" />
<SolidDensity name="Solid density" units="kmol/m3">
  <eqno value="2" />
  <A value="32.096" />
  <B value="-0.018032" />
  <Tmin units="K" value="79.07" />
  <Tmax units="K" value="197.67" />
  </SolidDensity>
<LiquidDensity name="Liquid density" units="kmol/m3">
  <eqno value="105" />
  <A value="1.8477" />
  <B value="0.24254" />
  <C value="430.75" />
  <D value="0.27051" />
  <Tmin units="K" value="197.67" />
  <Tmax units="K" value="430.75" />
  </LiquidDensity>
<VaporPressure name="Vapour pressure" units="Pa">
  <eqno value="101" />
  <A value="53.52766" />
  <B value="-4260.124" />
  <C value="-4.670429" />
  <D value="0.0000030272" />
  <E value="2" />
  <Tmin units="K" value="195.12" />
  <Tmax units="K" value="430.75" />
  </VaporPressure>
<HeatOfVaporization name="Heat of vaporization" units="J/kmol">
  <eqno value="106" />
  <A value="4.8914E+07" />
  <B value="1.8091" />
  <C value="-2.9053" />
  <D value="2.2271" />
  <E value="-0.64793" />
  <Tmin units="K" value="197.67" />
  <Tmax units="K" value="430.75" />
  </HeatOfVaporization>
<SolidHeatCapacityCp name="Solid heat capacity" units="J/kmol/K">
  <eqno value="100" />
  <A value="-22618" />
  <B value="1707.9" />
  <C value="-16.235" />
  <D value="0.074564" />
  <E value="-0.00012295" />
  <Tmin units="K" value="30" />
  <Tmax units="K" value="197.68" />
  </SolidHeatCapacityCp>
<LiquidHeatCapacityCp name="Liquid heat capacity" units="J/kmol/K">
  <eqno value="16" />
  <A value="86911" />
  <B value="53691" />
  <C value="-599.94" />
  <D value="2.2025" />
  <E value="-0.0025885" />
  <Tmin units="K" value="197.67" />
  <Tmax units="K" value="350" />
  </LiquidHeatCapacityCp>
<IdealGasHeatCapacityCp name="Ideal gas heat capacity" units="J/kmol/K">
  <eqno value="16" />
  <A value="33406" />
  <B value="-516.38" />
  <C value="10.524" />
  <D value="0.000013143" />
  <E value="-6.1535E-08" />
  <Tmin units="K" value="50" />
  <Tmax units="K" value="1500" />
  </IdealGasHeatCapacityCp>
<SecondVirialCoefficient name="Second virial coefficient" units="m3/kmol">
  <eqno value="104" />
  <A value="0.06722" />
  <B value="-59.185" />
  <C value="-7.1935" />
  <D value="-46.116" />
  <E value="-332.32" />
  <Tmin units="K" value="215.4" />
  <Tmax units="K" value="1723.2" />
  </SecondVirialCoefficient>
<LiquidViscosity name="Liquid viscosity" units="Pa.s">
  <eqno value="101" />
  <A value="50.887" />
  <B value="-1574" />
  <C value="-9.4517" />
  <D value="1.5898E-07" />
  <E value="2" />
  <Tmin units="K" value="225" />
  <Tmax units="K" value="400" />
  </LiquidViscosity>
<VaporViscosity name="Vapour viscosity" units="Pa.s">
  <eqno value="102" />
  <A value="0.0000012144" />
  <B value="0.53923" />
  <C value="315.41" />
  <D value="-2659.7" />
  <Tmin units="K" value="197.67" />
  <Tmax units="K" value="1250" />
  </VaporViscosity>
<LiquidThermalConductivity name="Liquid thermal conductivity" units="W/m/K">
  <eqno value="16" />
  <A value="-0.21664" />
  <B value="-2.2484" />
  <C value="-0.50659" />
  <D value="-0.0009424" />
  <E value="-0.0000010218" />
  <Tmin units="K" value="197.67" />
  <Tmax units="K" value="400" />
  </LiquidThermalConductivity>
<VaporThermalConductivity name="Vapour thermal conductivity" units="W/m/K">
  <eqno value="102" />
  <A value="23.316" />
  <B value="-0.95324" />
  <C value="-1567.4" />
  <D value="1330100" />
  <Tmin units="K" value="197.67" />
  <Tmax units="K" value="900" />
  </VaporThermalConductivity>
<SurfaceTension name="Surface tension" units="N/m">
  <eqno value="16" />
  <A value="-0.011604" />
  <B value="175.94" />
  <C value="-4.6965" />
  <D value="0.008615" />
  <E value="-0.000020963" />
  <Tmin units="K" value="197.67" />
  <Tmax units="K" value="430.75" />
  </SurfaceTension>
<RPPHeatCapacityCp name="Ideal gas heat capacity (RPP)" units="J/kmol/K">
  <eqno value="4" />
  <A value="29454" />
  <B value="40.762" />
  <C value="-0.015859" />
  <D value="0.0000004275" />
  <Tmin units="K" value="50" />
  <Tmax units="K" value="1500" />
  </RPPHeatCapacityCp>
<RelativeStaticPermittivity name="Relative static permittivity" units="_">
  <eqno value="120" />
  <A value="-17.87311" />
  <B value="-7500" />
  <C value="-45" />
  <Tmin units="K" value="254.15" />
  <Tmax units="K" value="424.15" />
  </RelativeStaticPermittivity>
<AntoineVaporPressure name="Antoine" units="Pa">
  <eqno value="10" />
  <A value="21.673" />
  <B value="2268.2" />
  <C value="-39.619" />
  <Tmin units="K" value="259.01" />
  <Tmax units="K" value="381.68" />
  </AntoineVaporPressure>
<LiquidViscosityRPS name="Liquid viscosity (RPS)" units="Pa.s">
  <eqno value="13" />
  <A value="-4.4294" />
  <B value="-0.011984" />
  <C value="-0.0000026289" />
  <Tmin units="K" value="225" />
  <Tmax units="K" value="400" />
  </LiquidViscosityRPS>
<COSTALDVolume name="COSTLD characteristic volume (V*)" units="m3/kmol" value="0.12522" />
<DiameterLJ name="Lennard Jones diameter" units="m" value="4.04E-10" />
<EnergyLJ name="Lennard Jones energy" units="K" value="347" />
<FullerVolume name="Fuller et al. diffusion volume" units="_" value="41.8" />
<MatthiasCopemanC2 name="Mathias-Copeman C2" units="_" value="-0.27539" />
<Parachor name="Parachor" units="kg0.25.m3/s0.5/kmol" value="0.0181" />
<SpecificGravity name="Specific gravity" units="_" value="1.39556" />
<Charge name="Charge" units="_" value="0" />
<CostaldAcentricFactor name="SRK acentric factor" units="_" value="0.256" />
<WilsonVolume name="Wilson volume" units="m3/kmol" value="0.0438228" />
<UniquacR name="UNIQUAC r" units="_" value="1.6961" />
<UniquacQ name="UNIQUAC q" units="_" value="1.612" />
<MatthiasCopemanC3 name="Mathias-Copeman C3" units="_" value="1.1906" />
<ChaoSeaderAcentricFactor name="Chao-Seader acentric factor" units="_" value="0.2462" />
<ChaoSeaderSolubilityParameter name="Chao-Seader solubility parameter" units="J0.5/m1.5" value="12272.9" />
<ChaoSeaderLiquidVolume name="Chao-Seader liquid volume" units="m3/kmol" value="0.0438228" />
<GCmethod name="PPR78">
  <group id="31" value="1" />
  </GCmethod>
<Umr name="UMR">
  <group id="216" value="1" />
  </Umr>
<CAS name="CAS number" value="7446-09-5" />
<Smiles name="SMILES" value="O=[S]=O" />
</compound>

