<compound>
<LibraryIndex name="Index" value="1289" />
<CompoundID name="Name" value="terephthalic acid" />
<StructureFormula name="Structure" value="COOH(C6H4)COOH" />
<Family name="Family" value="53" />
<CriticalTemperature name="Critical temperature" units="K" value="943.0648" />
<CriticalPressure name="Critical pressure" units="Pa" value="4492234" />
<CriticalVolume name="Critical volume" units="m3/kmol" value="0.4235" />
<CriticalCompressibility name="Critical compressibility factor" units="_" value="0.242627" />
<NormalBoilingPointTemperature name="Normal boiling point" units="K" value="665.55" />
<NormalMeltingPointTemperature name="Melting point" units="K" value="573.15" />
<MolecularWeight name="Molecular weight" units="kg/kmol" value="166.1308" />
<LiquidVolumeAtNormalBoilingPoint name="Liquid molar volume at normal boiling point" units="m3/kmol" value="0.115821" />
<AcentricityFactor name="Acentric factor" units="_" value="1.16031" />
<RadiusOfGyration name="Radius of gyration" units="m" value="4.162787E-10" />
<SolubilityParameter name="Solubility parameter" units="J0.5/m1.5" value="29038.44" />
<VanDerWaalsVolume name="Van der Waals volume" units="m3/kmol" value="0.0828" />
<VanDerWaalsArea name="Van der Waals area" units="m2/kmol" value="1.062E+09" />
<HeatOfFormation name="IG heat of formation" units="J/kmol" value="-7.179E+08" />
<GibbsEnergyOfFormation name="IG Gibbs energy of formation" units="J/kmol" value="-5.99E+08" />
<AbsEntropy name="IG absolute entropy" units="J/kmol/K" value="448000" />
<HeatOfFusionAtMeltingPoint name="Heat of fusion at melting point" units="J/kmol" value="0" />
<HeatOfCombustion name="Standard net heat of combustion LHV" units="J/kmol" value="-3.0576E+09" />
<SolidDensity name="Solid density" units="kmol/m3">
  <eqno value="2" />
  <A value="9.0891" />
  <B value="-4.8319E-09" />
  <C value="0" />
  <D value="0" />
  <E value="0" />
  <Tmin units="K" value="298.15" />
  <Tmax units="K" value="307.65" />
  </SolidDensity>
<LiquidDensity name="Liquid density" units="kmol/m3">
  <eqno value="105" />
  <A value="0.42685" />
  <B value="0.181" />
  <C value="1113" />
  <D value="0.28571" />
  <Tmin units="K" value="700.15" />
  <Tmax units="K" value="1113" />
  </LiquidDensity>
<VaporPressure name="Vapour pressure" units="Pa">
  <eqno value="101" />
  <A value="215.8574" />
  <B value="-29586.64" />
  <C value="-25.50026" />
  <D value="3.863371E-06" />
  <E value="2" />
  <Tmin units="K" value="700.15" />
  <Tmax units="K" value="1113" />
  </VaporPressure>
<HeatOfVaporization name="Heat of vaporization" units="J/kmol">
  <eqno value="106" />
  <A value="8.9802E+07" />
  <B value="0.189" />
  <C value="-0.50305" />
  <D value="-1.1074" />
  <E value="4.311" />
  <Tmin units="K" value="298.15" />
  <Tmax units="K" value="307.65" />
  </HeatOfVaporization>
<SolidHeatCapacityCp name="Solid heat capacity" units="J/kmol/K">
  <eqno value="100" />
  <A value="-6542500" />
  <B value="74970" />
  <C value="-317.47" />
  <D value="0.6016" />
  <E value="-0.0004268" />
  <Tmin units="K" value="318" />
  <Tmax units="K" value="398" />
  </SolidHeatCapacityCp>
<IdealGasHeatCapacityCp name="Ideal gas heat capacity" units="J/kmol/K">
  <eqno value="16" />
  <A value="83070" />
  <B value="-852.74" />
  <C value="13.689" />
  <D value="-0.000643" />
  <E value="1.4167E-07" />
  <Tmin units="K" value="273" />
  <Tmax units="K" value="1500" />
  </IdealGasHeatCapacityCp>
<VaporViscosity name="Vapour viscosity" units="Pa.s">
  <eqno value="102" />
  <A value="2.4248E-08" />
  <B value="0.96894" />
  <C value="40.456" />
  <D value="-14256" />
  <Tmin units="K" value="700.15" />
  <Tmax units="K" value="1000" />
  </VaporViscosity>
<VaporThermalConductivity name="Vapour thermal conductivity" units="W/m/K">
  <eqno value="102" />
  <A value="0.00016184" />
  <B value="0.88608" />
  <C value="624.29" />
  <D value="90960" />
  <Tmin units="K" value="274" />
  <Tmax units="K" value="1000" />
  </VaporThermalConductivity>
<RPPHeatCapacityCp name="Ideal gas heat capacity (RPP)" units="J/kmol/K">
  <eqno value="4" />
  <A value="-47902" />
  <B value="696.58" />
  <C value="-0.43325" />
  <D value="0.000095385" />
  <Tmin units="K" value="273" />
  <Tmax units="K" value="1500" />
  </RPPHeatCapacityCp>
<AntoineVaporPressure name="Antoine" units="Pa">
  <eqno value="10" />
  <A value="24.733" />
  <B value="9708.2" />
  <C value="-96.745" />
  <Tmin units="K" value="844.65" />
  <Tmax units="K" value="1113" />
  </AntoineVaporPressure>
<RacketParameter name="Rackett parameter" units="_" value="0.208079" />
<FullerVolume name="Fuller et al. diffusion volume" units="_" value="147.2" />
<Parachor name="Parachor" units="kg0.25.m3/s0.5/kmol" value="0.049" />
<SpecificGravity name="Specific gravity" units="_" value="1.51" />
<Charge name="Charge" units="_" value="0" />
<UniquacR name="UNIQUAC r" units="_" value="5.456" />
<UniquacQ name="UNIQUAC q" units="_" value="4.288" />
<UnifacVLE name="UNIFAC">
  <group id="10" value="4" />
  <group id="11" value="2" />
  <group id="43" value="2" />
  </UnifacVLE>
<UnifacLLE name="UNIFAC-LLE">
  <group id="9" value="4" />
  <group id="10" value="2" />
  <group id="23" value="2" />
  </UnifacLLE>
<Asog name="ASOG">
  <group id="10" value="4" />
  <group id="11" value="2" />
  <group id="24" value="2" />
  </Asog>
<Umr name="UMR">
  <group id="10" value="4" />
  <group id="11" value="2" />
  <group id="43" value="2" />
  </Umr>
<ModifiedUnifac name="Modified UNIFAC">
  <group id="9" value="4" />
  <group id="10" value="2" />
  <group id="42" value="2" />
  </ModifiedUnifac>
<CAS name="CAS number" value="100-21-0" />
<Smiles name="SMILES" value="c1(C(=O)O)ccc(C(=O)O)cc1" />
</compound>

