<compound>
<LibraryIndex name="Index" value="1804" />
<CompoundID name="Name" value="tert-butyl mercaptan" />
<StructureFormula name="Structure" value="C(CH3)3SH" />
<Family name="Family" value="41" />
<CriticalTemperature name="Critical temperature" units="K" value="530" />
<CriticalPressure name="Critical pressure" units="Pa" value="4060000" />
<CriticalVolume name="Critical volume" units="m3/kmol" value="0.307" />
<CriticalCompressibility name="Critical compressibility factor" units="_" value="0.283" />
<NormalBoilingPointTemperature name="Normal boiling point" units="K" value="337.37" />
<NormalMeltingPointTemperature name="Melting point" units="K" value="274.26" />
<TriplePointTemperature name="Triple point temperature" units="K" value="274.42" />
<TriplePointPressure name="Triple point pressure" units="Pa" value="7907.71" />
<MolecularWeight name="Molecular weight" units="kg/kmol" value="90.18719" />
<LiquidVolumeAtNormalBoilingPoint name="Liquid molar volume at normal boiling point" units="m3/kmol" value="0.113524" />
<AcentricityFactor name="Acentric factor" units="_" value="0.191395" />
<RadiusOfGyration name="Radius of gyration" units="m" value="3.185E-10" />
<SolubilityParameter name="Solubility parameter" units="J0.5/m1.5" value="15790" />
<DipoleMoment name="Dipole moment" units="Coulomb.m" value="5.3E-30" />
<VanDerWaalsVolume name="Van der Waals volume" units="m3/kmol" value="0.05915" />
<VanDerWaalsArea name="Van der Waals area" units="m2/kmol" value="8.45E+08" />
<HeatOfFormation name="IG heat of formation" units="J/kmol" value="-1.096E+08" />
<GibbsEnergyOfFormation name="IG Gibbs energy of formation" units="J/kmol" value="1006000" />
<AbsEntropy name="IG absolute entropy" units="J/kmol/K" value="338000" />
<HeatOfFusionAtMeltingPoint name="Heat of fusion at melting point" units="J/kmol" value="2482000" />
<MatthiasCopemanC1 name="Mathias-Copeman C1" units="_" value="0.89359" />
<HeatOfCombustion name="Standard net heat of combustion LHV" units="J/kmol" value="-2.9396E+09" />
<SolidDensity name="Solid density" units="kmol/m3">
  <eqno value="2" />
  <A value="11.536" />
  <B value="-0.0047128" />
  <C value="0" />
  <D value="0" />
  <E value="0" />
  <Tmin units="K" value="109.7" />
  <Tmax units="K" value="274.26" />
  </SolidDensity>
<LiquidDensity name="Liquid density" units="kmol/m3">
  <eqno value="105" />
  <A value="0.89711" />
  <B value="0.27544" />
  <C value="530" />
  <D value="0.31359" />
  <Tmin units="K" value="274.26" />
  <Tmax units="K" value="530" />
  </LiquidDensity>
<VaporPressure name="Vapour pressure" units="Pa">
  <eqno value="101" />
  <A value="107.5154" />
  <B value="-7030.549" />
  <C value="-13.1586" />
  <D value="0.0000127338" />
  <E value="2" />
  <Tmin units="K" value="274.26" />
  <Tmax units="K" value="530" />
  </VaporPressure>
<HeatOfVaporization name="Heat of vaporization" units="J/kmol">
  <eqno value="106" />
  <A value="5.3137E+07" />
  <B value="1.4502" />
  <C value="-2.4713" />
  <D value="2.4297" />
  <E value="-0.95458" />
  <Tmin units="K" value="274.26" />
  <Tmax units="K" value="530" />
  </HeatOfVaporization>
<SolidHeatCapacityCp name="Solid heat capacity" units="J/kmol/K">
  <eqno value="100" />
  <A value="-19552" />
  <B value="2145.8" />
  <C value="-26.593" />
  <D value="0.17311" />
  <E value="-0.00034631" />
  <Tmin units="K" value="12.35" />
  <Tmax units="K" value="176.87" />
  </SolidHeatCapacityCp>
<LiquidHeatCapacityCp name="Liquid heat capacity" units="J/kmol/K">
  <eqno value="16" />
  <A value="154160" />
  <B value="506.03" />
  <C value="1.848" />
  <D value="0.027991" />
  <E value="-0.000021961" />
  <Tmin units="K" value="274.26" />
  <Tmax units="K" value="450" />
  </LiquidHeatCapacityCp>
<IdealGasHeatCapacityCp name="Ideal gas heat capacity" units="J/kmol/K">
  <eqno value="16" />
  <A value="81989" />
  <B value="-677.66" />
  <C value="12.907" />
  <D value="-0.00021031" />
  <E value="4.8543E-08" />
  <Tmin units="K" value="200" />
  <Tmax units="K" value="1500" />
  </IdealGasHeatCapacityCp>
<SecondVirialCoefficient name="Second virial coefficient" units="m3/kmol">
  <eqno value="104" />
  <A value="0.15748" />
  <B value="-135.94" />
  <C value="-33.617" />
  <D value="1896.4" />
  <E value="-6191.8" />
  <Tmin units="K" value="262" />
  <Tmax units="K" value="1834" />
  </SecondVirialCoefficient>
<LiquidViscosity name="Liquid viscosity" units="Pa.s">
  <eqno value="101" />
  <A value="-8.3337" />
  <B value="1214.8" />
  <C value="-0.59208" />
  <D value="0.0000022318" />
  <E value="2" />
  <Tmin units="K" value="273.15" />
  <Tmax units="K" value="393" />
  </LiquidViscosity>
<VaporViscosity name="Vapour viscosity" units="Pa.s">
  <eqno value="102" />
  <A value="3.9123E-07" />
  <B value="0.6395" />
  <C value="316.74" />
  <D value="-8533.3" />
  <Tmin units="K" value="274.26" />
  <Tmax units="K" value="1000" />
  </VaporViscosity>
<LiquidThermalConductivity name="Liquid thermal conductivity" units="W/m/K">
  <eqno value="16" />
  <A value="0.031454" />
  <B value="-260.91" />
  <C value="0.599" />
  <D value="-0.0079027" />
  <E value="0.0000031638" />
  <Tmin units="K" value="274.26" />
  <Tmax units="K" value="337.37" />
  </LiquidThermalConductivity>
<VaporThermalConductivity name="Vapour thermal conductivity" units="W/m/K">
  <eqno value="102" />
  <A value="0.032499" />
  <B value="0.31482" />
  <C value="1562.3" />
  <D value="775320" />
  <Tmin units="K" value="274.42" />
  <Tmax units="K" value="1000" />
  </VaporThermalConductivity>
<SurfaceTension name="Surface tension" units="N/m">
  <eqno value="16" />
  <A value="-0.003175" />
  <B value="737.78" />
  <C value="-10.123" />
  <D value="0.022698" />
  <E value="-0.000032367" />
  <Tmin units="K" value="274.26" />
  <Tmax units="K" value="530" />
  </SurfaceTension>
<RPPHeatCapacityCp name="Ideal gas heat capacity (RPP)" units="J/kmol/K">
  <eqno value="4" />
  <A value="11171" />
  <B value="439.34" />
  <C value="-0.24387" />
  <D value="0.000049974" />
  <Tmin units="K" value="200" />
  <Tmax units="K" value="1500" />
  </RPPHeatCapacityCp>
<RelativeStaticPermittivity name="Relative static permittivity" units="_">
  <eqno value="120" />
  <A value="-4.422" />
  <B value="-2740" />
  <C value="-16.44" />
  <Tmin units="K" value="275" />
  <Tmax units="K" value="445" />
  </RelativeStaticPermittivity>
<AntoineVaporPressure name="Antoine" units="Pa">
  <eqno value="10" />
  <A value="20.619" />
  <B value="2629" />
  <C value="-48.233" />
  <Tmin units="K" value="318.35" />
  <Tmax units="K" value="476.97" />
  </AntoineVaporPressure>
<LiquidViscosityRPS name="Liquid viscosity (RPS)" units="Pa.s">
  <eqno value="12" />
  <A value="-3.3141" />
  <B value="-0.013773" />
  <Tmin units="K" value="273.15" />
  <Tmax units="K" value="337.37" />
  </LiquidViscosityRPS>
<COSTALDVolume name="COSTLD characteristic volume (V*)" units="m3/kmol" value="0.315937" />
<DiameterLJ name="Lennard Jones diameter" units="m" value="5.725508E-10" />
<EnergyLJ name="Lennard Jones energy" units="K" value="367.8072" />
<RacketParameter name="Rackett parameter" units="_" value="0.283" />
<FullerVolume name="Fuller et al. diffusion volume" units="_" value="122.489" />
<MatthiasCopemanC2 name="Mathias-Copeman C2" units="_" value="-0.862" />
<Parachor name="Parachor" units="kg0.25.m3/s0.5/kmol" value="0.0427884" />
<SpecificGravity name="Specific gravity" units="_" value="0.80482" />
<Charge name="Charge" units="_" value="0" />
<CostaldAcentricFactor name="SRK acentric factor" units="_" value="0.191395" />
<WilsonVolume name="Wilson volume" units="m3/kmol" value="0.113524" />
<UniquacR name="UNIQUAC r" units="_" value="4.3543" />
<UniquacQ name="UNIQUAC q" units="_" value="3.912" />
<MatthiasCopemanC3 name="Mathias-Copeman C3" units="_" value="2.2573" />
<ChaoSeaderAcentricFactor name="Chao-Seader acentric factor" units="_" value="0.191395" />
<ChaoSeaderSolubilityParameter name="Chao-Seader solubility parameter" units="J0.5/m1.5" value="15790" />
<ChaoSeaderLiquidVolume name="Chao-Seader liquid volume" units="m3/kmol" value="0.113524" />
<Asog name="ASOG">
  <group id="1" value="3" />
  <group id="4" value="1" />
  <group id="55" value="1" />
  </Asog>
<GCmethod name="PPR78">
  <group id="1" value="3" />
  <group id="4" value="1" />
  <group id="15" value="1" />
  </GCmethod>
<CAS name="CAS number" value="75-66-1" />
<Smiles name="SMILES" value="CC(C)(C)S" />
</compound>

