<compound>
<LibraryIndex name="Index" value="1216" />
<CompoundID name="Name" value="tripropylene glycol" />
<StructureFormula name="Structure" value="C9H20O4" />
<Family name="Family" value="49" />
<CriticalTemperature name="Critical temperature" units="K" value="677" />
<CriticalPressure name="Critical pressure" units="Pa" value="2540000" />
<CriticalVolume name="Critical volume" units="m3/kmol" value="0.596" />
<CriticalCompressibility name="Critical compressibility factor" units="_" value="0.268941" />
<NormalBoilingPointTemperature name="Normal boiling point" units="K" value="554.0076" />
<NormalMeltingPointTemperature name="Melting point" units="K" value="228.15" />
<TriplePointTemperature name="Triple point temperature" units="K" value="228.15" />
<TriplePointPressure name="Triple point pressure" units="Pa" value="0.0000204766" />
<MolecularWeight name="Molecular weight" units="kg/kmol" value="192.2527" />
<LiquidVolumeAtNormalBoilingPoint name="Liquid molar volume at normal boiling point" units="m3/kmol" value="0.188729" />
<AcentricityFactor name="Acentric factor" units="_" value="1.25671" />
<RadiusOfGyration name="Radius of gyration" units="m" value="5.785E-10" />
<SolubilityParameter name="Solubility parameter" units="J0.5/m1.5" value="21740" />
<DipoleMoment name="Dipole moment" units="Coulomb.m" value="2.27E-30" />
<VanDerWaalsVolume name="Van der Waals volume" units="m3/kmol" value="0.11552" />
<VanDerWaalsArea name="Van der Waals area" units="m2/kmol" value="1.624E+09" />
<HeatOfFormation name="IG heat of formation" units="J/kmol" value="-8.297E+08" />
<GibbsEnergyOfFormation name="IG Gibbs energy of formation" units="J/kmol" value="-5.035E+08" />
<AbsEntropy name="IG absolute entropy" units="J/kmol/K" value="467300" />
<HeatOfCombustion name="Standard net heat of combustion LHV" units="J/kmol" value="-6.11E+09" />
<IdealGasHeatCapacityCp name="Ideal gas heat capacity" units="J/kmol/K">
  <eqno value="16" />
  <A value="117985.7" />
  <B value="-500" />
  <C value="13.48108" />
  <D value="0" />
  <E value="0" />
  <Tmin units="K" value="255" />
  <Tmax units="K" value="1500" />
  </IdealGasHeatCapacityCp>
<AntoineVaporPressure name="Antoine" units="Pa">
  <eqno value="10" />
  <A value="21.6" />
  <B value="4500" />
  <C value="-100" />
  <Tmin units="K" value="270" />
  <Tmax units="K" value="554" />
  </AntoineVaporPressure>
<FullerVolume name="Fuller et al. diffusion volume" units="_" value="213.74" />
<Parachor name="Parachor" units="kg0.25.m3/s0.5/kmol" value="0.0837569" />
<Charge name="Charge" units="_" value="0" />
<UniquacR name="UNIQUAC r" units="_" value="7.615" />
<UniquacQ name="UNIQUAC q" units="_" value="6.496" />
<UnifacVLE name="UNIFAC">
  <group id="1" value="3" />
  <group id="2" value="2" />
  <group id="3" value="1" />
  <group id="15" value="1" />
  <group id="27" value="1" />
  <group id="101" value="1" />
  </UnifacVLE>
<CAS name="CAS number" value="1638-16-0" />
<Smiles name="SMILES" value="CC(CO)OCC(C)OCC(C)O" />
</compound>

